LAMMPS data file via write_data, version 29 Sep 2021, timestep = 6000000

3910 atoms
14 atom types
3109 bonds
9 bond types
2305 angles
3 angle types
768 impropers
1 improper types

-12.418372 12.418372 xlo xhi
-12.418372 12.418372 ylo yhi
-55.882675 55.882675 zlo zhi

Masses

1 15.2
2 1
3 0.001
4 15.2
5 15.2
6 22.2
7 126.2
8 34.2
9 0.8
10 0.8
11 0.8
12 0.8
13 0.8
14 0.8

PairIJ Coeffs # lj/cut/thole/long/omp

1 1 0.18985 3.18395 0.97825 2.6 12
1 2 0 1.59197 0 2.6 12
1 3 0 1.59197 0 2.6 12
1 4 0.16326 3.19381 0.96402 2.6 12
1 5 0.16326 3.19381 0.96402 2.6 12
1 6 0.13292 2.72788 0.48454 2.6 12
1 7 0.13706 4.15423 2.60182 2.6 12
1 8 0.13466 3.76133 1.89993 2.6 12
1 9 0.01055 3.18395 0.97825 2.6 12
1 10 0.00907 3.19381 0.96402 2.6 12
1 11 0.00907 3.19381 0.96402 2.6 12
1 12 0.00505 2.72788 0.48454 2.6 12
1 13 0.00091 4.15423 2.60182 2.6 12
1 14 0.00332 3.76133 1.89993 2.6 12
2 2 0 0 0 2.6 12
2 3 0 0 0 2.6 12
2 4 0 1.60183 0 2.6 12
2 5 0 1.60183 0 2.6 12
2 6 0 1.1359 0 2.6 12
2 7 0 2.56225 0 2.6 12
2 8 0 2.16935 0 2.6 12
2 9 0 1.59197 0 2.6 12
2 10 0 1.60183 0 2.6 12
2 11 0 1.60183 0 2.6 12
2 12 0 1.1359 0 2.6 12
2 13 0 2.56225 0 2.6 12
2 14 0 2.16935 0 2.6 12
3 3 0 0 0 2.6 12
3 4 0 1.60183 0 2.6 12
3 5 0 1.60183 0 2.6 12
3 6 0 1.1359 0 2.6 12
3 7 0 2.56225 0 2.6 12
3 8 0 2.16935 0 2.6 12
3 9 0 1.59197 0 2.6 12
3 10 0 1.60183 0 2.6 12
3 11 0 1.60183 0 2.6 12
3 12 0 1.1359 0 2.6 12
3 13 0 2.56225 0 2.6 12
3 14 0 2.16935 0 2.6 12
4 4 0.1404 3.20367 0.95 2.6 12
4 5 0.1404 3.20367 0.95 2.6 12
4 6 0.11431 2.73773 0.47749 2.6 12
4 7 0.11787 4.16409 2.56398 2.6 12
4 8 0.1158 3.77119 1.8723 2.6 12
4 9 0.00907 3.19381 0.96402 2.6 12
4 10 0.0078 3.20367 0.95 2.6 12
4 11 0.0078 3.20367 0.95 2.6 12
4 12 0.00434 2.73773 0.47749 2.6 12
4 13 0.00079 4.16409 2.56398 2.6 12
4 14 0.00285 3.77119 1.8723 2.6 12
5 5 0.1404 3.20367 0.95 2.6 12
5 6 0.11431 2.73773 0.47749 2.6 12
5 7 0.11787 4.16409 2.56398 2.6 12
5 8 0.1158 3.77119 1.8723 2.6 12
5 9 0.00907 3.19381 0.96402 2.6 12
5 10 0.0078 3.20367 0.95 2.6 12
5 11 0.0078 3.20367 0.95 2.6 12
5 12 0.00434 2.73773 0.47749 2.6 12
5 13 0.00079 4.16409 2.56398 2.6 12
5 14 0.00285 3.77119 1.8723 2.6 12
6 6 0.09304 2.2718 0.24 2.6 12
6 7 0.09589 3.69815 1.28872 2.6 12
6 8 0.09424 3.30525 0.94106 2.6 12
6 9 0.00726 2.72788 0.48454 2.6 12
6 10 0.00624 2.73773 0.47749 2.6 12
6 11 0.00624 2.73773 0.47749 2.6 12
6 12 0.00348 2.2718 0.24 2.6 12
6 13 0.00063 3.69815 1.28872 2.6 12
6 14 0.00229 3.30525 0.94106 2.6 12
7 7 0.09874 5.1245 6.92 2.6 12
7 8 0.09708 4.7316 5.0532 2.6 12
7 9 0.00726 4.15423 2.60182 2.6 12
7 10 0.00624 4.16409 2.56398 2.6 12
7 11 0.00624 4.16409 2.56398 2.6 12
7 12 0.00348 3.69815 1.28872 2.6 12
7 13 0.00063 5.1245 6.92 2.6 12
7 14 0.00229 4.7316 5.0532 2.6 12
8 8 0.09543 4.3387 3.69 2.6 12
8 9 0.00726 3.76133 1.89993 2.6 12
8 10 0.00624 3.77119 1.8723 2.6 12
8 11 0.00624 3.77119 1.8723 2.6 12
8 12 0.00348 3.30525 0.94106 2.6 12
8 13 0.00063 4.7316 5.0532 2.6 12
8 14 0.00229 4.3387 3.69 2.6 12
9 9 0 3.18395 0.97825 2.6 12
9 10 0 3.19381 0.96402 2.6 12
9 11 0 3.19381 0.96402 2.6 12
9 12 0 2.72788 0.48454 2.6 12
9 13 0 4.15423 2.60182 2.6 12
9 14 0 3.76133 1.89993 2.6 12
10 10 0 3.20367 0.95 2.6 12
10 11 0 3.20367 0.95 2.6 12
10 12 0 2.73773 0.47749 2.6 12
10 13 0 4.16409 2.56398 2.6 12
10 14 0 3.77119 1.8723 2.6 12
11 11 0 3.20367 0.95 2.6 12
11 12 0 2.73773 0.47749 2.6 12
11 13 0 4.16409 2.56398 2.6 12
11 14 0 3.77119 1.8723 2.6 12
12 12 0 2.2718 0.24 2.6 12
12 13 0 3.69815 1.28872 2.6 12
12 14 0 3.30525 0.94106 2.6 12
13 13 0 5.1245 6.92 2.6 12
13 14 0 4.7316 5.0532 2.6 12
14 14 0 4.3387 3.69 2.6 12

Bond Coeffs # harmonic/omp

1 10000 0.9572
2 10000 0.24034
3 10000 1.278
4 500 0
5 500 0
6 500 0
7 500 0
8 500 0
9 500 0

Angle Coeffs # harmonic/omp

1 10000 104.52
2 10000 52.26
3 10000 116.8

Improper Coeffs # harmonic/omp

1 10000 0

Atoms # full

2919 730 2 0.55733 -10.0375633676244 -9.93834243743069 -17.79595819274842 3 0 0
2806 702 2 0.55733 -10.452753080781756 -10.115458384627617 19.1449359119276 2 1 0
2764 691 3 -1.11466 -10.631695306295038 -11.485791815750346 -16.344186638561194 0 0 0
2332 583 3 -1.11466 -8.041316480143717 -10.970851712141128 -14.089778317667736 2 3 0
1642 411 2 0.55733 -11.178686670162769 -10.677317079401723 -13.474880356447256 1 1 0
3525 411 9 -1.71637987 -10.462030561200205 -10.34103517070768 -14.119408131746914 1 1 0
1644 411 3 -1.11466 -10.704596743291367 -10.190604220290536 -13.960211412344044 1 1 0
2329 583 1 1.71637987 -7.843946812120547 -10.843912082355857 -14.062812007160893 2 3 0
3727 583 9 -1.71637987 -7.777913024629556 -10.831517077447911 -14.064651796731846 2 3 0
1643 411 2 0.55733 -10.761097326545045 -9.375451981529313 -14.131479853849013 1 1 0
1641 411 1 1.71637987 -10.526127581092126 -10.299370456973227 -14.066846524697159 1 1 0
3731 604 9 -1.71637987 -12.009223112068476 -9.705971770679502 -11.362335942117927 2 -1 0
2763 691 2 0.55733 -10.573602368052027 -10.874029204079914 -15.778080829614305 0 0 0
2330 583 2 0.55733 -8.738816350382827 -10.589263980327882 -13.839444278721372 2 3 0
2413 604 1 1.71637987 -12.050738352088393 -9.713394219341659 -11.338026628066988 2 -1 0
1831 458 2 0.55733 -9.926875053707352 -9.474567265196917 -11.230839191127977 1 2 0
3634 458 9 -1.71637987 -8.914337273820834 -9.433221972486935 -11.249456919182423 1 2 0
1829 458 1 1.71637987 -8.977603219274584 -9.383786104032554 -11.301148660996558 1 2 0
1832 458 3 -1.11466 -9.142260598406983 -9.231904918688965 -11.37398359226144 1 2 0
3814 691 9 -1.71637987 -10.75402854583127 -11.392976702706912 -16.612403756040585 0 0 0
2331 583 2 0.55733 -7.924398846102556 -11.726146565540205 -14.423221942612967 2 3 0
2761 691 1 1.71637987 -10.734784576025143 -11.42531317176829 -16.544185352523016 0 0 0
2196 549 3 -1.11466 -7.247617540618837 -11.930985844534066 -16.986058270528773 -1 3 0
3702 549 9 -1.71637987 -7.039731396555366 -11.731538819814773 -16.9653105198733 -1 3 0
2193 549 1 1.71637987 -7.081119427623472 -11.766202496673115 -16.974539997584966 -1 3 0
823 206 2 0.55733 -7.524546936824954 -12.387956407969156 11.576674394594146 0 1 0
2093 524 1 1.71637987 -6.396288813557416 -10.448491039263244 4.702644032661662 0 1 0
2762 691 2 0.55733 -10.381403146875204 -12.281753330971526 -16.309929133809085 0 0 0
2416 604 3 -1.11466 -12.13869619768716 -9.880388876667187 -11.20298235170344 2 -1 0
2258 565 2 0.55733 -6.539405366480154 -9.852182639882614 -15.61497574882963 0 0 0
1830 458 2 0.55733 -8.844025774761748 -8.542092080434639 -11.733216433922788 1 2 0
1886 472 2 0.55733 -8.994751955071052 -8.993733381319746 14.098834940514095 3 1 0
969 243 1 1.71637987 -7.077547157436532 -8.332542414309984 -18.26366985082105 1 -2 0
2917 730 1 1.71637987 -9.775044941967412 -9.023074194722055 -17.87760917622506 3 0 0
3661 524 9 -1.71637987 -6.315382622336802 -10.41661107789145 4.735963830857894 0 1 0
2054 514 2 0.55733 -8.455340254753159 -11.130235711213139 -10.713457212369763 1 0 0
2608 652 3 -1.11466 -7.3106971697236665 -10.476843861982898 -7.051309338554682 1 3 0
2607 652 2 0.55733 -7.299985506742361 -9.931093389240523 -6.4204364734282215 1 3 0
3647 514 9 -1.71637987 -8.452371952721657 -12.138142148872996 -10.557253898068819 1 0 0
1620 405 3 -1.11466 -10.216255657841844 -9.787097546521276 -6.401576810493253 4 0 0
1617 405 1 1.71637987 -10.093884167106568 -9.591364449171268 -6.368576513388873 4 0 0
3725 405 9 -1.71637987 -10.030480907891752 -9.500722500471499 -6.3467237721930925 4 0 0
1619 405 2 0.55733 -9.772471738635568 -10.444244103351343 -6.659377477254186 4 0 0
1618 405 2 0.55733 -11.03282837557766 -9.711521703355876 -6.2432011562455 4 0 0
1910 478 2 0.55733 -8.88323225423101 -9.148202416696993 -5.038969655361229 -1 0 0
1912 478 3 -1.11466 -8.311089923285417 -9.239880803723148 -4.438699933357574 -1 0 0
1909 478 1 1.71637987 -8.145631496906287 -9.074389888185648 -4.434777627778906 -1 0 0
3618 478 9 -1.71637987 -8.09120010033029 -9.043188426678254 -4.467506521124553 -1 0 0
2606 652 2 0.55733 -7.823978377885208 -11.116249497233685 -7.2074744636074515 1 3 0
3784 652 9 -1.71637987 -7.086435820702089 -10.428406431979873 -7.277049910592429 1 3 0
2605 652 1 1.71637987 -7.141561470667729 -10.44633885242522 -7.211272723478997 1 3 0
1012 253 3 -1.11466 -6.948766690718463 -9.447367367752461 -9.601802732153782 -1 -1 0
1009 253 1 1.71637987 -6.738974383210996 -9.379268467357438 -9.684028627936042 -1 -1 0
1011 253 2 0.55733 -6.9270680132528195 -9.838023882491154 -8.865630749412293 -1 -1 0
3411 253 9 -1.71637987 -6.677708613510441 -9.349698677599886 -9.720427491326829 -1 -1 0
1911 478 2 0.55733 -8.232765930035777 -9.82460550494256 -3.84895469372399 -1 0 0
1066 267 2 0.55733 -9.127700565197708 -10.409611292156931 0.15336079279636894 2 2 0
1010 253 2 0.55733 -7.591620742190894 -9.258731531007626 -10.098436949251784 -1 -1 0
994 249 2 0.55733 -12.20508647105691 -9.566097532530787 2.044014214734182 1 1 0
2056 514 3 -1.11466 -8.57334770544558 -11.903560859003374 -10.423011860198418 1 0 0
3667 472 9 -1.71637987 -9.724112495694174 -9.656248509902355 13.993481885921222 3 1 0
2414 604 2 0.55733 -12.219160277366907 -9.67156119591616 -10.3996120698386 2 -1 0
2306 577 2 0.55733 -11.115033705418096 -11.022003825828357 16.546871386818566 2 -1 0
2451 613 2 0.55733 -11.076771321911131 -8.749346554796377 14.788534977871729 1 0 0
2055 514 2 0.55733 -9.029958468576181 -12.178512940553352 -9.78127686897901 1 0 0
494 124 2 0.55733 -10.34986899102713 -12.062782627679374 -0.8900475826500963 -1 -1 0
972 243 3 -1.11466 -7.197543727076687 -8.519891484019324 -18.341609711395172 1 -2 0
843 211 2 0.55733 -7.716953814364114 -12.33731601109246 -3.8094459385866117 -2 0 0
3876 577 9 -1.71637987 -10.14229989146189 -10.83141545396409 16.30846314991153 2 -1 0
3009 753 1 1.71637987 -11.103674594136521 -9.633527517115 3.360511678754839 4 2 0
495 124 2 0.55733 -11.49710332007977 -11.097639019957153 -1.1157330579190121 -1 -1 0
2482 621 2 0.55733 -7.501904158441748 -11.148637027194278 -2.0155581139618466 1 1 0
2483 621 2 0.55733 -9.000851983124157 -10.927804729631614 -2.057728162082409 1 1 0
3781 621 9 -1.71637987 -8.240986710290613 -11.158970179976011 -2.705777073279804 1 1 0
853 214 1 1.71637987 -7.671621284285608 -11.903797883490524 2.7654880573255447 -1 -1 0
2481 621 1 1.71637987 -8.250305089345135 -11.143797812351451 -2.6097231514502224 1 1 0
854 214 2 0.55733 -8.076927299408858 -11.347335280066181 2.1029740547883033 -1 -1 0
3010 753 2 0.55733 -11.007062186016524 -10.582491189000569 3.4169984374116944 4 2 0
1065 267 1 1.71637987 -8.512755568188156 -10.21711620978126 0.860728968939063 2 2 0
3237 124 9 -1.71637987 -10.470323006735564 -11.092504301690427 -0.9619206445111506 -1 -1 0
493 124 1 1.71637987 -10.553007055652966 -11.131574329559207 -0.9625151932339366 -1 -1 0
1068 267 3 -1.11466 -8.68762866327223 -10.081855069540536 0.7829771226216974 2 2 0
3402 267 9 -1.71637987 -8.459880278690818 -10.27610700236521 0.890819998396351 2 2 0
3012 753 3 -1.11466 -10.907969162288811 -9.758667544112585 3.3320229375095956 4 2 0
856 214 3 -1.11466 -7.664432952497913 -11.930728663391413 2.533112024746825 -1 -1 0
2484 621 3 -1.11466 -8.250475609688507 -11.100925107101167 -2.3783691186576683 1 1 0
3357 214 9 -1.71637987 -7.675262755697268 -11.898531560357213 2.885375197659892 -1 -1 0
3011 753 2 0.55733 -10.22669983550049 -9.308410186029118 3.162767599853916 4 2 0
3899 753 9 -1.71637987 -11.190971856634967 -9.620823965497575 3.339130299405004 4 2 0
496 124 3 -1.11466 -10.702200439774751 -11.311120039406495 -0.9782473882847834 -1 -1 0
970 243 2 0.55733 -8.013237516719522 -8.508390719833614 -18.162623881882343 1 -2 0
1067 267 2 0.55733 -8.768121908638262 -9.351279866394894 1.1783802497420468 2 2 0
1356 339 3 -1.11466 -6.846577541485291 -11.026519499204397 16.696953471914057 2 2 0
2563 641 2 0.55733 -7.756365929814577 -9.080555696177104 17.795483631930345 0 1 0
2096 524 3 -1.11466 -6.611263900777017 -10.537183765227924 4.6997435122544315 0 1 0
3798 622 9 -1.71637987 -6.3790112189249095 -10.712552708406854 -0.8999435380833518 0 -2 0
971 243 2 0.55733 -6.741147136564073 -9.08333836967107 -18.75527373947905 1 -2 0
94 24 2 0.55733 -8.145287190927856 -11.239759984335938 18.137942105481994 1 2 0
2487 622 2 0.55733 -6.776288192103195 -10.267669667905615 -0.08360562546184791 0 -2 0
1888 472 3 -1.11466 -9.545303869702975 -9.610870913027707 14.210490115084905 3 1 0
3862 702 9 -1.71637987 -11.270378729965264 -9.578429235033719 19.04792194985038 2 1 0
1885 472 1 1.71637987 -9.66962240940297 -9.666102639001945 14.020455935432153 3 1 0
96 24 3 -1.11466 -8.763835573711654 -11.356967334606242 18.68468045566343 1 2 0
3255 162 9 -1.71637987 -11.320219656836453 -9.071342387348874 8.542355735870581 0 -1 0
1991 498 2 0.55733 -9.301162459982558 -9.21832952276597 6.987111358457746 -2 0 0
645 162 1 1.71637987 -11.295468622005547 -9.080268364366836 8.586467310625055 0 -1 0
2094 524 2 0.55733 -6.730115863071505 -11.150707061089081 4.14643172075266 0 1 0
3637 498 9 -1.71637987 -8.581151154295682 -8.948326710278176 6.373521127426308 -2 0 0
1989 498 1 1.71637987 -8.633083600969217 -8.921785330417151 6.3693335357194565 -2 0 0
1992 498 3 -1.11466 -8.837559867680522 -8.819924583505312 6.419367187122895 -2 0 0
647 162 2 0.55733 -11.018768291878123 -9.5953162093039 9.342938029814839 0 -1 0
2095 524 2 0.55733 -7.139126097336908 -10.18910975574932 5.245332444958122 0 1 0
648 162 3 -1.11466 -11.154420081990503 -9.013791151362282 8.761887861674422 0 -1 0
2053 514 1 1.71637987 -8.456968735219773 -12.071010425494917 -10.539852152704682 1 0 0
2982 746 2 0.55733 -10.589637023386587 -11.405360056210275 10.944972293615157 2 1 0
2984 746 3 -1.11466 -10.569677029818926 -10.706361742330802 11.40018988389511 2 1 0
3878 746 9 -1.71637987 -10.593037209290351 -10.444212539150897 11.239690419706895 2 1 0
2981 746 1 1.71637987 -10.56760840686452 -10.508677902121374 11.274429828404495 2 1 0
2305 577 1 1.71637987 -10.19032673806876 -10.832701550832578 16.39667378340608 2 -1 0
3896 730 9 -1.71637987 -9.7073919516556 -9.005081585041468 -17.891421310433763 3 0 0
2805 702 1 1.71637987 -11.260134653100033 -9.6140354377108 19.039083036711403 2 1 0
1353 339 1 1.71637987 -6.919588161499567 -10.902584250298005 16.882115178242856 2 2 0
3436 339 9 -1.71637987 -6.975384596741901 -10.869296079977559 16.962375108077964 2 2 0
2983 746 2 0.55733 -10.554061587517488 -10.596889166890907 12.226757410118388 2 1 0
2195 549 2 0.55733 -8.014430299683568 -11.66853211045276 -16.789463343410187 -1 3 0
1303 326 2 0.55733 -9.063954333984473 -12.247043290303944 15.29210033278145 1 2 0
2808 702 3 -1.11466 -11.224854304798152 -9.838076724501397 18.988210647122063 2 1 0
3372 243 9 -1.71637987 -7.0149908084896975 -8.301913964386575 -18.219112107022234 1 -2 0
2488 622 3 -1.11466 -6.3103930675122335 -10.431156592799107 -0.7553325537549309 0 -2 0
95 24 2 0.55733 -9.050675303437968 -12.05533652208465 19.039445146024597 1 2 0
2307 577 2 0.55733 -9.836288574685513 -10.636689998211388 17.262569722655705 2 -1 0
2920 730 3 -1.11466 -9.984259926954788 -9.106351611558692 -17.812505735597526 3 0 0
2807 702 2 0.55733 -11.890308888983869 -10.235230955167097 18.677141704238313 2 1 0
2627 657 2 0.55733 -7.014863953905627 -9.844921027237993 10.95452233984375 1 1 0
3834 657 9 -1.71637987 -6.615919963837354 -10.762215288499247 11.122539627512355 1 1 0
2625 657 1 1.71637987 -6.610515879068747 -10.687190845759762 11.154483920698052 1 1 0
1887 472 2 0.55733 -9.726549149356487 -10.059695928221803 14.890760887599594 3 1 0
2628 657 3 -1.11466 -6.5890779227874905 -10.48771626937768 11.275138622975126 1 1 0
2308 577 3 -1.11466 -10.30617808408982 -10.8308777516256 16.60149634175644 2 -1 0
1354 339 2 0.55733 -7.452796422987494 -11.441602991153168 16.302841795779617 2 2 0
3117 24 9 -1.71637987 -8.939850985414727 -11.098388602725835 18.733214130146635 1 2 0
93 24 1 1.71637987 -8.876912220682973 -11.160372597472547 18.749915381378507 1 2 0
2259 565 2 0.55733 -6.214581285842119 -8.86202260870829 -16.71645685139233 0 0 0
1693 424 1 1.71637987 -12.14082054200713 -8.398118680126188 -2.8856301308371304 3 -1 0
1696 424 3 -1.11466 -12.32944180708448 -8.41982269398539 -3.0222815201420716 3 -1 0
2452 613 3 -1.11466 -11.707270596837107 -8.340817980834538 15.149973631968681 1 0 0
3569 424 9 -1.71637987 -12.129564553228153 -8.381108472368892 -2.8301029259815307 3 -1 0
2415 604 2 0.55733 -12.322714757112886 -10.590542183773062 -11.600689447976949 2 -1 0
3758 613 9 -1.71637987 -11.959440549508885 -8.481936100568841 15.20820977586592 1 0 0
322 81 2 0.55733 -10.076963371294902 -8.378311970914728 11.047307510424286 -1 1 0
2449 613 1 1.71637987 -11.894299720849087 -8.474122385263332 15.200638269599452 1 0 0
118 30 2 0.55733 -11.694393557665503 -12.198943298273324 -8.129167495843589 0 1 0
735 184 2 0.55733 -6.224357909608769 -10.790315692456582 -12.893057957952038 -2 1 0
2485 622 1 1.71637987 -6.340782202271691 -10.64546862294095 -0.8468997992975797 0 -2 0
1843 461 2 0.55733 -6.306363981131075 -8.407621101175875 -4.5984901405000915 0 0 0
2564 641 3 -1.11466 -7.536534948812168 -8.289911324599776 17.943391521712837 0 1 0
2918 730 2 0.55733 -10.55006962619603 -8.521783592945164 -17.630232364240705 3 0 0
290 73 2 0.55733 -12.403032450366851 -8.377691276686228 -8.92419496502026 1 0 0
42 11 2 0.55733 -8.772322711707034 -12.335644802592636 4.1648906599417685 -2 -2 0
3037 760 1 1.71637987 -12.326048671087852 -6.477335693916018 10.123376078295392 4 1 0
1491 373 2 0.55733 -7.65849634636133 -6.749134906001621 -12.468832721089816 1 0 0
3489 373 9 -1.71637987 -8.410287998333768 -6.690113620662227 -11.841243884779765 1 0 0
1489 373 1 1.71637987 -8.405197625537589 -6.654023833506543 -11.880760001970955 1 0 0
1492 373 3 -1.11466 -8.364093047318757 -6.535664884366679 -12.07985271532569 1 0 0
1107 277 2 0.55733 -10.861692200192177 -6.870919941090197 -13.736290175278988 1 0 0
1490 373 2 0.55733 -8.945957502404722 -5.971951061594238 -12.280185648909537 1 0 0
1108 277 3 -1.11466 -11.396586540157069 -7.494060628067854 -13.596413916611539 1 0 0
2511 628 2 0.55733 -11.089374748721738 -6.971694981758232 -15.989073000112677 1 0 0
3396 277 9 -1.71637987 -11.296332959129245 -7.758253511460863 -13.726505336218628 1 0 0
1105 277 1 1.71637987 -11.325880364266649 -7.7037772059357295 -13.677441467550466 1 0 0
1419 355 2 0.55733 -9.49686436370179 -8.040296591827921 -7.052554491234462 -2 -1 0
542 136 2 0.55733 -10.43718449605772 -4.478803582097601 -13.004930240531358 0 0 0
327 82 2 0.55733 -12.309668174842926 -4.976451530134158 -14.407618093863617 2 -1 0
2366 592 2 0.55733 -6.654425346744536 -6.010332363428793 -6.750692866802823 -1 -2 0
2561 641 1 1.71637987 -7.699784253862695 -8.13011955881939 17.887398042417313 0 1 0
3903 731 9 -1.71637987 -11.40980730122531 -4.323621495655432 -9.884998170231444 1 0 0
663 166 2 0.55733 -12.344628273036601 -8.045974412585709 7.15616944211399 1 1 0
2647 662 2 0.55733 -12.391537864685624 -4.431491350273795 -7.383215382036653 2 1 0
3905 760 9 -1.71637987 -12.267160100654577 -6.512872009445162 10.158709184399353 4 1 0
3769 628 9 -1.71637987 -11.697903425516879 -7.03770219733659 -16.76581159272172 1 0 0
541 136 1 1.71637987 -9.96551181578159 -4.347823883759735 -12.182992725483963 0 0 0
2712 678 3 -1.11466 -7.955373590825001 -4.345993338046291 9.528840122094461 3 0 0
3869 676 9 -1.71637987 -12.386178002051103 -4.755845875881103 7.917727072706928 1 -2 0
625 157 1 1.71637987 -7.7741519286290135 -7.712841292308159 14.987874834899367 1 2 0
3181 82 9 -1.71637987 -11.299655839781224 -4.9124597161696375 -14.406394189958913 2 -1 0
3210 81 9 -1.71637987 -9.948311870141392 -7.387113127353571 10.971296439617724 -1 1 0
3260 136 9 -1.71637987 -9.920887943267067 -4.365225386649565 -12.175021395293346 0 0 0
1736 434 3 -1.11466 -6.791538862846937 -7.397827942098735 7.962125296556006 -1 0 0
115 29 2 0.55733 -12.017500863675613 -5.501929654719608 -17.63746508597827 2 1 0
544 136 3 -1.11466 -10.194302892978852 -4.391743101920931 -12.211414868083384 0 0 0
1018 255 2 0.55733 -7.0500000998375585 -7.598169472725432 10.182002967355263 1 0 0
2711 678 2 0.55733 -8.665702407102016 -4.746943893135218 9.703001003616794 3 0 0
1058 265 2 0.55733 -10.794451514825115 -4.75200086448795 -6.27619336997712 -1 -1 0
1747 437 2 0.55733 -7.125709639127974 -4.4227908671356015 -10.029219540810658 1 0 0
2368 592 3 -1.11466 -6.41463904607927 -6.383543645441642 -7.457559903566774 -1 -2 0
1590 398 2 0.55733 -11.462125508437826 -6.01891057870846 -9.53784922257585 3 0 0
1187 297 2 0.55733 -12.131194658230312 -7.4593905246883185 19.610685809312855 1 0 0
1592 398 3 -1.11466 -11.187527203433255 -6.789755461459604 -9.37653222486579 3 0 0
1589 398 1 1.71637987 -11.343633443915573 -6.9590485671667555 -9.42204089690231 3 0 0
3522 398 9 -1.71637987 -11.40572819529703 -7.010563840894432 -9.424591239693136 3 0 0
1418 355 2 0.55733 -8.57263852252655 -6.838850062839288 -7.083359378774373 -2 -1 0
1746 437 2 0.55733 -8.07658665241636 -5.598072609867568 -10.133616239772083 1 0 0
3329 210 9 -1.71637987 -7.721281235556584 -5.437296498692161 -5.635647185453212 0 0 0
837 210 1 1.71637987 -7.768417377223215 -5.378137213953839 -5.585187851255667 0 0 0
840 210 3 -1.11466 -7.922344696239896 -5.2021464509070405 -5.556111952353008 0 0 0
1591 398 2 0.55733 -10.45572752793962 -7.055081374783137 -9.079316291651338 3 0 0
839 210 2 0.55733 -8.699179818368178 -5.447501400727997 -5.373785188521084 0 0 0
3566 437 9 -1.71637987 -7.902646541758392 -4.8175053923199505 -9.549469591964963 1 0 0
1745 437 1 1.71637987 -7.872697922193588 -4.83292832231898 -9.596995542036586 1 0 0
1748 437 3 -1.11466 -7.763506764755063 -4.904104822145863 -9.793004031511666 1 0 0
2710 678 2 0.55733 -7.3570613373142315 -4.516685724111037 8.97323811028883 3 0 0
1420 355 3 -1.11466 -9.205891744086424 -7.314766863923282 -7.345182741960777 -2 -1 0
3494 355 9 -1.71637987 -9.38289620288434 -7.1759331885633815 -7.565232709252112 -2 -1 0
1185 297 1 1.71637987 -12.036126852552549 -6.713291201737192 19.020536755705887 1 0 0
2365 592 1 1.71637987 -6.249005914827035 -6.547561542788034 -7.429580156029479 -1 -2 0
1057 265 1 1.71637987 -11.21508742848956 -5.579389153084064 -6.513224802124986 -1 -1 0
1417 355 1 1.71637987 -9.32104634657592 -7.230736820770782 -7.529750804936318 -2 -1 0
1059 265 2 0.55733 -10.549186091516457 -6.0561357947273295 -7.007439991879597 -1 -1 0
3345 237 9 -1.71637987 -9.530137676520418 -6.275423033804526 17.586642400718326 2 -1 0
325 82 1 1.71637987 -11.359263108075803 -4.885925754441258 -14.46284604035951 2 -1 0
2756 689 3 -1.11466 -9.728506339871272 -7.132925290471155 -2.4001629300267955 -1 1 0
2754 689 2 0.55733 -9.762393920860115 -7.598155747180979 -3.090519667536304 -1 1 0
2755 689 2 0.55733 -10.269995435352063 -7.05155561269569 -1.7722528554873291 -1 1 0
1735 434 2 0.55733 -6.338035843366927 -6.759639499603526 7.673386181968718 -1 0 0
3098 792 8 2.45723606 -6.258337581937787 -6.240080560754566 3.6879145758776364 0 1 0
3374 265 9 -1.71637987 -11.294430142380003 -5.577574761900051 -6.50134285444958 -1 -1 0
919 230 2 0.55733 -6.340338933790404 -4.428656456081738 -14.175518001613971 -1 -1 0
681 171 1 1.71637987 -9.374867639578603 -5.5055538825952075 12.795518439029756 -2 -1 0
1674 419 2 0.55733 -7.280433347996791 -4.4839286585364295 2.626119004397251 -1 -3 0
1396 349 3 -1.11466 -10.55036984156835 -5.788690675113432 15.376791231708662 1 1 0
947 237 2 0.55733 -8.866979434930473 -7.047986487393268 17.678361877080434 2 -1 0
838 210 2 0.55733 -7.603935122387801 -4.436925288096175 -5.65121916339656 0 0 0
3799 641 9 -1.71637987 -7.768916541944368 -8.05806570439323 17.848116335118192 0 1 0
462 116 2 0.55733 -10.859333994982322 -5.262119515171213 3.2012413094617838 -1 1 0
2810 703 2 0.55733 -6.56182535836483 -5.8414226493169235 -3.282961595146854 3 -1 0
3806 655 9 -1.71637987 -11.626619877996854 -6.136000800982041 1.995384339322609 1 1 0
3540 434 9 -1.71637987 -6.678916249421216 -7.539472025305445 8.244409906663478 -1 0 0
1306 327 2 0.55733 -9.543993171621066 -7.247972622254229 2.304317606100448 0 1 0
1307 327 2 0.55733 -8.058993854673155 -7.454248454888467 2.5315326948045582 0 1 0
1308 327 3 -1.11466 -8.84770018414738 -7.697898574133508 2.4023477838447485 0 1 0
1510 378 2 0.55733 -12.173806569753664 -5.945494166272951 -0.896367520388913 2 1 0
3831 689 9 -1.71637987 -9.483136631010675 -6.9740998578802555 -2.3910029525681114 -1 1 0
2753 689 1 1.71637987 -9.534262938410427 -7.001241441332803 -2.3796546169702277 -1 1 0
1511 378 2 0.55733 -11.445048433903363 -4.6262838992545445 -0.7287600818969556 2 1 0
1512 378 3 -1.11466 -11.525650678070853 -5.456375789806219 -0.7073878887976383 2 1 0
2620 655 3 -1.11466 -11.82236812096699 -6.218756860352854 1.745825208910902 1 1 0
2617 655 1 1.71637987 -11.679059996085304 -6.152128467541147 1.9182843809512955 1 1 0
2619 655 2 0.55733 -11.564240555413514 -6.016443487776446 0.9778874912737283 1 1 0
3839 703 9 -1.71637987 -6.819098532451372 -5.88286246964946 -2.314466401797661 3 -1 0
2809 703 1 1.71637987 -6.8809718331266065 -5.9006094546016925 -2.3813212179310645 3 -1 0
3487 378 9 -1.71637987 -11.32701465866301 -5.6177728376568 -0.5849527105441935 2 1 0
1509 378 1 1.71637987 -11.334119016108952 -5.571405846757748 -0.6358477226347314 2 1 0
2811 703 2 0.55733 -7.803134781822305 -6.1418465157337625 -2.465854476143336 3 -1 0
2812 703 3 -1.11466 -7.0020512685355545 -5.937991025961506 -2.5802943999903887 3 -1 0
3452 327 9 -1.71637987 -8.898698453065643 -8.003532178580706 2.378767223527849 0 1 0
1305 327 1 1.71637987 -8.87747705371845 -7.928323989746121 2.393480803019433 0 1 0
390 98 2 0.55733 -6.341634795257731 -4.731923160030032 -1.1777517914403142 -1 -1 0
1990 498 2 0.55733 -8.983716893092204 -8.116012475327608 5.9965415099550405 -2 0 0
328 82 3 -1.11466 -11.520655045302522 -4.779565438575007 -14.594049277281052 2 -1 0
2701 676 1 1.71637987 -12.40240956463843 -4.670810385329469 7.886915613880148 1 -2 0
324 81 3 -1.11466 -10.208994232696462 -7.567623255764166 10.909056915311895 -1 1 0
1703 426 2 0.55733 -6.3761167739939655 -8.043252732588392 -14.00610941108729 1 -3 0
463 116 2 0.55733 -11.428243314527206 -4.558434892008524 4.416963610907459 -1 1 0
464 116 3 -1.11466 -10.822792343763718 -4.814155386980151 3.9031682568474464 -1 1 0
684 171 3 -1.11466 -9.540595537739959 -5.474572032599232 12.630424097097627 -2 -1 0
326 82 2 0.55733 -11.213171890868319 -4.264317441459412 -15.174061975728911 2 -1 0
1734 434 2 0.55733 -7.481184839820019 -7.754284379618787 7.657559593587613 -1 0 0
3225 116 9 -1.71637987 -10.520214037945534 -4.754638498009169 4.019057395840919 -1 1 0
1575 394 2 0.55733 -9.566229779821903 -5.960752266424219 4.740167054099311 1 -2 0
1576 394 3 -1.11466 -8.951421246752215 -6.340748661295636 5.1562576255754 1 -2 0
1573 394 1 1.71637987 -9.00806698029441 -6.409216900196716 5.373720752114125 1 -2 0
3513 394 9 -1.71637987 -9.024697409125558 -6.456303937414837 5.4648470132527205 1 -2 0
3198 94 9 -1.71637987 -9.951663132706804 -6.310255868759755 8.01209295548753 -1 0 0
375 94 2 0.55733 -9.632417625838416 -6.1575512459258395 7.091167266435056 -1 0 0
376 94 3 -1.11466 -10.066587112641066 -6.183206280065886 7.803588591385131 -1 0 0
373 94 1 1.71637987 -9.956485239434565 -6.283646687144623 7.982063222038076 -1 0 0
1574 394 2 0.55733 -8.169072650557352 -6.515899353077652 4.929419356413331 1 -2 0
461 116 1 1.71637987 -10.605242744453491 -4.749208896984047 3.9666523113536245 -1 1 0
374 94 2 0.55733 -10.831397890860845 -5.902232734709929 7.983746890399849 -1 0 0
1020 255 3 -1.11466 -7.287406927821263 -7.661976293555735 10.978361370224764 1 0 0
3401 255 9 -1.71637987 -7.099853632194818 -7.786012442365047 11.152244183289664 1 0 0
1017 255 1 1.71637987 -7.129874341824042 -7.763785514589322 11.120692449243613 1 0 0
1695 424 2 0.55733 -12.340439705569956 -7.903797351607909 -3.677672246136527 3 -1 0
323 81 2 0.55733 -10.909414362719378 -7.154724388610808 10.722979387856522 -1 1 0
1019 255 2 0.55733 -7.994243882872936 -7.428230229499497 11.355276199474067 1 0 0
1395 349 2 0.55733 -10.128843661241547 -5.797006495751391 14.657111996395248 1 1 0
1060 265 3 -1.11466 -10.99393587784301 -5.508861583885095 -6.564017389797966 -1 -1 0
1188 297 3 -1.11466 -12.190538656376516 -6.887768204205109 19.00541731389688 1 0 0
3271 157 9 -1.71637987 -7.7822382825202885 -7.746422073580579 14.939917328582222 1 2 0
1394 349 2 0.55733 -10.280381548972024 -5.805657555005488 16.16452958340772 1 1 0
3384 297 9 -1.71637987 -11.998935340279566 -6.6629831821124315 19.02042915447104 1 0 0
628 157 3 -1.11466 -7.831886449644955 -7.53832565630246 15.131872181513241 1 2 0
627 157 2 0.55733 -7.761433260866004 -6.77484957153112 14.805318333430419 1 2 0
1393 349 1 1.71637987 -10.783661119150283 -5.777912392980528 15.353240692116296 1 1 0
945 237 1 1.71637987 -9.528960274901214 -6.356431393649159 17.66264055147599 2 -1 0
626 157 2 0.55733 -8.077037653351939 -7.784255873589562 15.890971713844282 1 2 0
946 237 2 0.55733 -10.160118707677407 -6.606950572694871 18.335302800214407 2 -1 0
3482 349 9 -1.71637987 -10.871446987923274 -5.780154456941445 15.349768796206266 1 1 0
1106 277 2 0.55733 -12.138881557757315 -7.499182131285859 -13.217466365881211 1 0 0
948 237 3 -1.11466 -9.522241339042123 -6.546124260735787 17.800518367887893 2 -1 0
3256 792 14 -3.45723606 -6.26307306757608 -6.3029310901469655 3.672974194900363 0 1 0
2450 613 2 0.55733 -11.785629706423796 -7.537659628509457 15.358885754270018 1 0 0
1471 368 2 0.55733 -8.515982622775521 -4.616548678133063 17.633039943540524 0 2 0
682 171 2 0.55733 -9.593922167252106 -6.0920497733685135 12.071867511200589 -2 -1 0
3301 171 9 -1.71637987 -9.318910085308596 -5.495161602121991 12.86733295927736 -2 -1 0
321 81 1 1.71637987 -10.01620555885659 -7.432733648012546 10.923937313449246 -1 1 0
683 171 2 0.55733 -9.978513405047599 -4.767989758557029 12.702272148573416 -2 -1 0
2512 628 3 -1.11466 -11.713171020099994 -7.172437760898595 -16.50651474999855 1 0 0
2367 592 2 0.55733 -6.661833059992718 -6.263312018499154 -8.245691759418081 -1 -2 0
2562 641 2 0.55733 -6.831590031578318 -7.97112013578784 18.256495430312196 0 1 0