LAMMPS data file via write_data, version 29 Sep 2021, timestep = 6000000

3910 atoms
14 atom types
3109 bonds
9 bond types
2305 angles
3 angle types
768 impropers
1 improper types

-12.418372 12.418372 xlo xhi
-12.418372 12.418372 ylo yhi
-55.882675 55.882675 zlo zhi

Masses

1 15.2
2 1
3 0.001
4 15.2
5 15.2
6 22.2
7 126.2
8 34.2
9 0.8
10 0.8
11 0.8
12 0.8
13 0.8
14 0.8

PairIJ Coeffs # lj/cut/thole/long/omp

1 1 0.18985 3.18395 0.97825 2.6 12
1 2 0 1.59197 0 2.6 12
1 3 0 1.59197 0 2.6 12
1 4 0.16326 3.19381 0.96402 2.6 12
1 5 0.16326 3.19381 0.96402 2.6 12
1 6 0.13292 2.72788 0.48454 2.6 12
1 7 0.13706 4.15423 2.60182 2.6 12
1 8 0.13466 3.76133 1.89993 2.6 12
1 9 0.01055 3.18395 0.97825 2.6 12
1 10 0.00907 3.19381 0.96402 2.6 12
1 11 0.00907 3.19381 0.96402 2.6 12
1 12 0.00505 2.72788 0.48454 2.6 12
1 13 0.00091 4.15423 2.60182 2.6 12
1 14 0.00332 3.76133 1.89993 2.6 12
2 2 0 0 0 2.6 12
2 3 0 0 0 2.6 12
2 4 0 1.60183 0 2.6 12
2 5 0 1.60183 0 2.6 12
2 6 0 1.1359 0 2.6 12
2 7 0 2.56225 0 2.6 12
2 8 0 2.16935 0 2.6 12
2 9 0 1.59197 0 2.6 12
2 10 0 1.60183 0 2.6 12
2 11 0 1.60183 0 2.6 12
2 12 0 1.1359 0 2.6 12
2 13 0 2.56225 0 2.6 12
2 14 0 2.16935 0 2.6 12
3 3 0 0 0 2.6 12
3 4 0 1.60183 0 2.6 12
3 5 0 1.60183 0 2.6 12
3 6 0 1.1359 0 2.6 12
3 7 0 2.56225 0 2.6 12
3 8 0 2.16935 0 2.6 12
3 9 0 1.59197 0 2.6 12
3 10 0 1.60183 0 2.6 12
3 11 0 1.60183 0 2.6 12
3 12 0 1.1359 0 2.6 12
3 13 0 2.56225 0 2.6 12
3 14 0 2.16935 0 2.6 12
4 4 0.1404 3.20367 0.95 2.6 12
4 5 0.1404 3.20367 0.95 2.6 12
4 6 0.11431 2.73773 0.47749 2.6 12
4 7 0.11787 4.16409 2.56398 2.6 12
4 8 0.1158 3.77119 1.8723 2.6 12
4 9 0.00907 3.19381 0.96402 2.6 12
4 10 0.0078 3.20367 0.95 2.6 12
4 11 0.0078 3.20367 0.95 2.6 12
4 12 0.00434 2.73773 0.47749 2.6 12
4 13 0.00079 4.16409 2.56398 2.6 12
4 14 0.00285 3.77119 1.8723 2.6 12
5 5 0.1404 3.20367 0.95 2.6 12
5 6 0.11431 2.73773 0.47749 2.6 12
5 7 0.11787 4.16409 2.56398 2.6 12
5 8 0.1158 3.77119 1.8723 2.6 12
5 9 0.00907 3.19381 0.96402 2.6 12
5 10 0.0078 3.20367 0.95 2.6 12
5 11 0.0078 3.20367 0.95 2.6 12
5 12 0.00434 2.73773 0.47749 2.6 12
5 13 0.00079 4.16409 2.56398 2.6 12
5 14 0.00285 3.77119 1.8723 2.6 12
6 6 0.09304 2.2718 0.24 2.6 12
6 7 0.09589 3.69815 1.28872 2.6 12
6 8 0.09424 3.30525 0.94106 2.6 12
6 9 0.00726 2.72788 0.48454 2.6 12
6 10 0.00624 2.73773 0.47749 2.6 12
6 11 0.00624 2.73773 0.47749 2.6 12
6 12 0.00348 2.2718 0.24 2.6 12
6 13 0.00063 3.69815 1.28872 2.6 12
6 14 0.00229 3.30525 0.94106 2.6 12
7 7 0.09874 5.1245 6.92 2.6 12
7 8 0.09708 4.7316 5.0532 2.6 12
7 9 0.00726 4.15423 2.60182 2.6 12
7 10 0.00624 4.16409 2.56398 2.6 12
7 11 0.00624 4.16409 2.56398 2.6 12
7 12 0.00348 3.69815 1.28872 2.6 12
7 13 0.00063 5.1245 6.92 2.6 12
7 14 0.00229 4.7316 5.0532 2.6 12
8 8 0.09543 4.3387 3.69 2.6 12
8 9 0.00726 3.76133 1.89993 2.6 12
8 10 0.00624 3.77119 1.8723 2.6 12
8 11 0.00624 3.77119 1.8723 2.6 12
8 12 0.00348 3.30525 0.94106 2.6 12
8 13 0.00063 4.7316 5.0532 2.6 12
8 14 0.00229 4.3387 3.69 2.6 12
9 9 0 3.18395 0.97825 2.6 12
9 10 0 3.19381 0.96402 2.6 12
9 11 0 3.19381 0.96402 2.6 12
9 12 0 2.72788 0.48454 2.6 12
9 13 0 4.15423 2.60182 2.6 12
9 14 0 3.76133 1.89993 2.6 12
10 10 0 3.20367 0.95 2.6 12
10 11 0 3.20367 0.95 2.6 12
10 12 0 2.73773 0.47749 2.6 12
10 13 0 4.16409 2.56398 2.6 12
10 14 0 3.77119 1.8723 2.6 12
11 11 0 3.20367 0.95 2.6 12
11 12 0 2.73773 0.47749 2.6 12
11 13 0 4.16409 2.56398 2.6 12
11 14 0 3.77119 1.8723 2.6 12
12 12 0 2.2718 0.24 2.6 12
12 13 0 3.69815 1.28872 2.6 12
12 14 0 3.30525 0.94106 2.6 12
13 13 0 5.1245 6.92 2.6 12
13 14 0 4.7316 5.0532 2.6 12
14 14 0 4.3387 3.69 2.6 12

Bond Coeffs # harmonic/omp

1 10000 0.9572
2 10000 0.24034
3 10000 1.278
4 500 0
5 500 0
6 500 0
7 500 0
8 500 0
9 500 0

Angle Coeffs # harmonic/omp

1 10000 104.52
2 10000 52.26
3 10000 116.8

Improper Coeffs # harmonic/omp

1 10000 0

Atoms # full

3247 139 9 -1.71637987 -7.759765725350585 -11.046130289409568 -18.094197154572917 1 0 0
553 139 1 1.71637987 -7.720896302469466 -11.068034747240805 -18.149982246688655 1 0 0
556 139 3 -1.11466 -7.585727098819611 -11.16370357755759 -18.31524190935601 1 0 0
2942 736 2 0.55733 -9.177875156448827 -10.033120909242035 -17.40467743744355 2 1 0
1457 365 1 1.71637987 -7.738577529752014 -9.206566581630712 -13.203386034989638 -1 -1 0
1460 365 3 -1.11466 -7.809836480786 -9.232607638350407 -13.425307186291747 -1 -1 0
3665 365 9 -1.71637987 -7.700448155199516 -9.180405036598696 -13.157642092626652 -1 -1 0
749 188 1 1.71637987 -9.473197754411727 -11.771157133612272 -12.653131825640918 5 0 0
2943 736 2 0.55733 -10.531959447139569 -10.020979318905363 -16.723207646638294 2 1 0
751 188 2 0.55733 -9.240111484190164 -12.040316830897558 -13.541768977704555 5 0 0
3294 188 9 -1.71637987 -9.534944051999874 -11.784467699583262 -12.64704239810311 5 0 0
750 188 2 0.55733 -8.644776920966084 -11.760028145550494 -12.175470056931172 5 0 0
752 188 3 -1.11466 -9.260049126082315 -11.822077774016917 -12.735619681738626 5 0 0
2944 736 3 -1.11466 -9.811687500849153 -9.689803979122921 -16.985106687198243 2 1 0
3898 736 9 -1.71637987 -9.773863371496304 -9.396691810849898 -16.899906735575467 2 1 0
2941 736 1 1.71637987 -9.782332635770246 -9.464801739801818 -16.932503014520044 2 1 0
555 139 2 0.55733 -7.024076490922595 -10.647129342592809 -18.654061200073937 1 0 0
1631 408 2 0.55733 -11.009548780729034 -9.28461276114091 -11.530652220611394 3 -1 0
3433 344 9 -1.71637987 -6.524811153682664 -10.970778792595086 -15.41191085814497 -2 0 0
1459 365 2 0.55733 -7.3762525945983395 -9.790139662349434 -13.869279272789242 -1 -1 0
1373 344 1 1.71637987 -6.486565641385228 -10.952835156539013 -15.459965047376432 -2 0 0
1376 344 3 -1.11466 -6.35563423887029 -10.91612045426896 -15.651636511923055 -2 0 0
65 17 1 1.71637987 -11.89994593167523 -9.79346957367315 16.781205057723785 2 0 0
1375 344 2 0.55733 -6.792873396686529 -10.758249265837861 -16.343248002087886 -2 0 0
3112 17 9 -1.71637987 -11.864115778589936 -9.758015561372622 16.789224749330334 2 0 0
2456 614 3 -1.11466 -8.095859944334547 -8.440868234145771 9.659436018679282 0 2 0
3269 147 9 -1.71637987 -6.7754877403888 -10.798445354973444 7.629891026872303 -1 0 0
1458 365 2 0.55733 -8.451146470468336 -8.74629616173703 -13.642670935198076 -1 -1 0
2647 662 2 0.55733 -6.632228736917858 -11.052604552773282 0.48338847645615063 3 -1 0
2726 682 2 0.55733 -11.945163704248984 -9.026965990803335 1.5100710067538101 3 0 0
1629 408 1 1.71637987 -10.892772912983514 -9.547040403952035 -10.617744089925527 3 -1 0
1632 408 3 -1.11466 -10.910433342856106 -9.686787946316342 -10.805912297489163 3 -1 0
3506 408 9 -1.71637987 -10.911657482610439 -9.484934152201637 -10.564206443935866 3 -1 0
1630 408 2 0.55733 -10.8683227544868 -10.50246915512338 -10.639749569883234 3 -1 0
985 247 1 1.71637987 -7.03842879782987 -9.929941994675703 -10.67460690817862 0 4 0
1024 256 3 -1.11466 -9.6647226835813 -8.562888259072542 -4.464608036437636 1 1 0
1023 256 2 0.55733 -10.113990382508385 -8.590810522555662 -3.762271563179754 1 1 0
988 247 3 -1.11466 -7.09960315148789 -9.704624837609519 -10.698143438888271 0 4 0
986 247 2 0.55733 -7.097825019356486 -9.26430769201773 -9.989961016596379 0 4 0
987 247 2 0.55733 -7.278926229544933 -9.474713798886816 -11.480001742061448 0 4 0
1022 256 2 0.55733 -8.84849522259179 -8.68132402737118 -4.592175796687725 1 1 0
2978 745 2 0.55733 -10.594806406232626 -11.980048358370292 0.9075723035027998 2 -1 0
2310 578 2 0.55733 -6.785631726579551 -11.556328592850068 -10.994362772902848 0 1 0
2021 506 1 1.71637987 -6.215407384962165 -10.959735720444094 13.775116459207254 0 0 0
3301 175 9 -1.71637987 -11.553848458143094 -8.787703896180076 13.349288370213896 0 -3 0
2453 614 1 1.71637987 -8.15506039078476 -8.667479282858968 9.6499870770026 0 2 0
3386 247 9 -1.71637987 -6.992528882286478 -10.028660822299795 -10.69305351460625 0 4 0
3440 339 9 -1.71637987 -9.580217063481935 -12.181524266712424 13.385054276456854 -1 2 0
1054 264 2 0.55733 -7.138652873848621 -11.241586379326138 18.524972683524176 0 1 0
1026 257 2 0.55733 -11.873898147611666 -8.953571137860635 -2.346297949183855 0 1 0
2259 565 2 0.55733 -7.98220916528128 -9.619587667318543 -1.1089098780259439 -1 0 0
2980 745 3 -1.11466 -10.94500574783123 -11.449441675585689 0.3667179156011354 2 -1 0
1109 278 1 1.71637987 -11.356647213458412 -8.52181156001274 19.559693727068364 3 0 0
2979 745 2 0.55733 -11.153155761485772 -10.646096022900267 0.45133341448825814 2 -1 0
2866 717 2 0.55733 -7.0777599855535325 -8.773748711837701 1.3952310267268202 2 1 0
1320 330 3 -1.11466 -9.20543157806228 -12.12966108274229 -2.1277202137073474 0 1 0
1319 330 2 0.55733 -8.613247347977635 -11.54213064476502 -2.154769632668386 0 1 0
1055 264 2 0.55733 -6.257058274961904 -12.282395968206778 17.86331512588151 0 1 0
2725 682 1 1.71637987 -10.990130082906505 -9.061162013593648 1.4717866581292813 3 0 0
3841 682 9 -1.71637987 -10.985756021908493 -9.142317204083396 1.4910778329312087 3 0 0
2260 565 3 -1.11466 -8.4303394080299 -9.466178047494628 -1.7965118697727864 -1 0 0
2648 662 3 -1.11466 -7.19029025378282 -10.435447840359139 0.4173878941613542 3 -1 0
2645 662 1 1.71637987 -7.104404554198053 -10.235157017035785 0.3315864939053502 3 -1 0
3407 278 9 -1.71637987 -11.312863360839627 -8.51505058796201 19.56508689683736 3 0 0
2646 662 2 0.55733 -8.002094982173709 -10.414919959846996 0.6106416113218824 3 -1 0
2977 745 1 1.71637987 -10.992875194436133 -11.54157087729112 0.15463131968738625 2 -1 0
2257 565 1 1.71637987 -8.310659833537127 -9.487480835638753 -1.99691774289121 -1 0 0
3462 330 9 -1.71637987 -9.131434217154107 -12.385812860060943 -2.2837362478561563 0 1 0
3693 565 9 -1.71637987 -8.294881042281977 -9.490175650813496 -2.037768991301376 -1 0 0
3813 662 9 -1.71637987 -7.123751782606151 -10.175450457901892 0.319439837310324 3 -1 0
2728 682 3 -1.11466 -11.123121396806296 -8.886187302940373 1.5490541656748058 3 0 0
2218 555 2 0.55733 -11.395013084654318 -10.023510155884473 2.9076113987622505 -1 0 0
1317 330 1 1.71637987 -9.167477106941249 -12.31303642258398 -2.267804247379158 0 1 0
1318 330 2 0.55733 -9.908366432082953 -12.171892926471275 -1.681272847466882 0 1 0
585 147 1 1.71637987 -6.741052893670558 -10.747563565687278 7.562082154847302 -1 0 0
1112 278 3 -1.11466 -11.536959624935433 -8.497345234985968 19.412789056320065 3 0 0
2539 635 2 0.55733 -6.285532297490306 -9.531741334695457 18.237890594598216 1 0 0
2258 565 2 0.55733 -9.231352843606325 -9.252330186672769 -1.8850988221357483 -1 0 0
1353 339 1 1.71637987 -9.627012753758024 -12.122999705630912 13.455709767779652 -1 2 0
3896 745 9 -1.71637987 -10.997926751180147 -11.56816141951356 0.11126480908174811 2 -1 0
67 17 2 0.55733 -12.194158655993737 -10.666286095595353 16.52361175029299 2 0 0
1198 300 2 0.55733 -10.169428029215938 -8.5833923123765 -9.158588718124982 1 -1 0
491 123 2 0.55733 -7.234050507407314 -8.33386862850796 -3.1718943907682764 2 5 0
1354 339 2 0.55733 -10.533157888557998 -11.82358900988778 13.398738182075043 -1 2 0
1355 339 2 0.55733 -9.283011060009763 -11.719216245560451 14.25062947246025 -1 2 0
735 184 2 0.55733 -12.081508671269777 -9.255675901913989 6.097544780112759 0 1 0
1021 256 1 1.71637987 -9.78804318856542 -8.515103515213436 -4.657879324274298 1 1 0
1111 278 2 0.55733 -11.873737495423114 -9.21458176217637 19.153923408348554 3 0 0
2537 635 1 1.71637987 -6.920610658389216 -9.612276294404028 18.945644985546608 1 0 0
3378 256 9 -1.71637987 -9.812558578618658 -8.452533764066134 -4.705010928016367 1 1 0
3742 614 9 -1.71637987 -8.161427545429554 -8.770248809131413 9.65309486601266 0 2 0
3764 635 9 -1.71637987 -6.9251691980719245 -9.686723841975732 18.948246799645766 1 0 0
2220 555 3 -1.11466 -11.47504705237129 -10.519822883649812 3.573709880789569 -1 0 0
3679 555 9 -1.71637987 -11.36011035578247 -10.814841870088497 3.521487851149863 -1 0 0
2217 555 1 1.71637987 -11.376365996328223 -10.731467275307764 3.5519031622677235 -1 0 0
289 73 1 1.71637987 -11.827830365330156 -10.192552142649356 10.966786753085234 1 2 0
955 239 2 0.55733 -10.663711816155885 -12.151344408722693 7.552456737749949 -2 1 0
3084 778 6 1.68760387 -7.964404049141589 -10.899074527693802 9.41782450440905 0 1 0
3349 239 9 -1.71637987 -9.996496749664173 -11.425752742692996 7.48924938154678 -2 1 0
956 239 3 -1.11466 -10.079846375982294 -11.616552153973892 7.291276970714807 -2 1 0
953 239 1 1.71637987 -10.018857870773392 -11.453176131568982 7.447393239050696 -2 1 0
3552 434 9 -1.71637987 -8.545240952997268 -11.229131478783621 5.297946752480372 3 -1 0
1733 434 1 1.71637987 -8.523756820042147 -11.232349806835375 5.247139219407173 3 -1 0
1735 434 2 0.55733 -7.908297589662392 -11.843650863570202 4.84281510978345 3 -1 0
1736 434 3 -1.11466 -8.53728012999819 -11.329517077492602 5.0318758341043255 3 -1 0
1734 434 2 0.55733 -9.20591215449324 -11.102993638134565 4.589290593855946 3 -1 0
2219 555 2 0.55733 -11.847755430285758 -10.386478622026633 4.3077272892690495 -1 0 0
954 239 2 0.55733 -9.676241574172819 -11.56707741948203 6.5623294144884845 -2 1 0
3635 778 12 -0.68760387 -7.969626713940857 -10.902205237972831 9.417062466403458 0 1 0
587 147 2 0.55733 -7.219008606498728 -10.32229877468704 6.8526014080835855 -1 0 0
292 73 3 -1.11466 -11.629409874733499 -10.112666866885345 11.061813705955876 1 2 0
290 73 2 0.55733 -10.933677185601416 -10.476090123173078 10.780079151840686 1 2 0
3179 73 9 -1.71637987 -11.8895129488953 -10.196963632764465 10.906327732393148 1 2 0
357 90 1 1.71637987 -9.064204875989779 -12.369267838111151 10.773182330783094 2 1 0
3177 90 9 -1.71637987 -9.034222610319173 -12.301749425543841 10.715108561272368 2 1 0
697 175 1 1.71637987 -11.545024142515071 -8.742815432508836 13.384322202000238 0 -3 0
2538 635 2 0.55733 -7.278567195677679 -8.731774023211637 19.056927258983833 1 0 0
2540 635 3 -1.11466 -6.864065248312917 -9.418302438062815 18.827111431987205 1 0 0
2022 506 2 0.55733 -6.763274365573691 -10.18840932321833 13.644912280580776 0 0 0
1356 339 3 -1.11466 -9.73935146880123 -11.983413496180626 13.603081500999842 -1 2 0
1053 264 1 1.71637987 -7.161480627944111 -11.971754468004466 17.909283636051796 0 1 0
554 139 2 0.55733 -7.742349345552415 -11.969377902910988 -18.466876333048674 1 0 0
3117 25 9 -1.71637987 -12.213664886655806 -11.61465521412885 13.843597708154157 2 -1 0
2864 716 3 -1.11466 -9.450708365889097 -8.429691651861157 16.48282333231039 2 1 0
1056 264 3 -1.11466 -6.974929672384067 -11.888661837701855 18.023476701426485 0 1 0
3392 264 9 -1.71637987 -7.214210310727772 -12.017926153984746 17.845148907785177 0 1 0
68 17 3 -1.11466 -12.120080056261344 -9.86509053409226 16.74216713623944 2 0 0
2862 716 2 0.55733 -10.229774935471378 -8.672609300238985 16.308395866831848 2 1 0
3857 716 9 -1.71637987 -9.269011879988936 -8.429473961653395 16.25738929920006 2 1 0
291 73 2 0.55733 -11.734979558087423 -9.5079979103773 11.626343198462768 1 2 0
97 25 1 1.71637987 -12.237657498058404 -11.597628802542674 13.884472702707448 2 -1 0
588 147 3 -1.11466 -6.655123061879141 -10.603186679544768 7.400001593119793 -1 0 0
1720 430 3 -1.11466 -8.97431305533457 -11.101608762792718 16.286982136765896 -2 2 0
1718 430 2 0.55733 -9.13134695866059 -10.293012783086638 16.42110374611278 -2 2 0
3538 430 9 -1.71637987 -9.144400172634603 -11.235641185456538 16.08669707454235 -2 2 0
700 175 3 -1.11466 -11.53783498498501 -8.520724651572593 13.459617022675705 0 -3 0
1719 430 2 0.55733 -8.365047098026045 -11.59223431404665 16.57704051795913 -2 2 0
1717 430 1 1.71637987 -9.128202959185908 -11.208580079730977 16.144907723369826 -2 2 0
2861 716 1 1.71637987 -9.31257508358942 -8.404671110404415 16.295118647533233 2 1 0
99 25 2 0.55733 -12.154387828204486 -12.11031617958478 14.689074329522402 2 -1 0
98 25 2 0.55733 -12.11539985738173 -10.690067031224034 14.158357282375638 2 -1 0
100 25 3 -1.11466 -12.197092352978654 -11.51945170988814 14.100974015215376 2 -1 0
2990 748 2 0.55733 -8.11612431254815 -8.328294382713255 14.67335343205358 2 0 0
59 15 2 0.55733 -9.555780966333135 -8.305281899288072 -15.64579349202375 1 1 0
1025 257 1 1.71637987 -11.19390560776104 -8.281031851443073 -2.3139004768635494 0 1 0
3398 257 9 -1.71637987 -11.115962990046645 -8.29872188163772 -2.360254535681915 0 1 0
1028 257 3 -1.11466 -11.391855056240129 -8.289837366490554 -2.189713858211107 0 1 0
2055 514 2 0.55733 -12.24653559663934 -8.478333671662766 -10.068857606887672 1 2 0
2559 640 2 0.55733 -10.76004847329436 -12.381426618005175 3.1395954836042126 2 3 0
2312 578 3 -1.11466 -6.635309534937037 -12.374880560819056 -10.931685902479543 0 1 0
359 90 2 0.55733 -9.239894882943442 -12.282008796440103 11.708993757086661 2 1 0
57 15 1 1.71637987 -9.641177006019028 -7.587164661972138 -15.01962985529807 1 1 0
1050 263 2 0.55733 -9.652042107470047 -6.620130899883016 -19.217367160857744 2 2 0
1049 263 1 1.71637987 -10.124089777103997 -6.960915238518654 -18.458961175325594 2 2 0
3373 263 9 -1.71637987 -10.141060465434075 -6.919790165301847 -18.428916513798526 2 2 0
2482 621 2 0.55733 -10.586364154712596 -5.608350031999118 -17.146120236374216 0 1 0
1052 263 3 -1.11466 -9.960367397182589 -7.070077880515493 -18.586894005301115 2 2 0
2481 621 1 1.71637987 -10.79751072198925 -5.07722273830447 -16.381224605233125 0 1 0
3751 621 9 -1.71637987 -10.849248071618259 -5.0808736022427 -16.337411024060035 0 1 0
2484 621 3 -1.11466 -10.66175292297926 -5.017255264775537 -16.564189401388848 0 1 0
1051 263 2 0.55733 -9.782233933677249 -7.844334208531032 -18.33384724017048 2 2 0
2867 717 2 0.55733 -6.6974762512510075 -8.15322077933513 2.725468751497973 2 1 0
2743 686 2 0.55733 -11.256593946320042 -6.783581689076935 -12.208955848898338 0 1 0
3113 15 9 -1.71637987 -9.631100570547428 -7.58887395026974 -14.941274742726108 1 1 0
490 123 2 0.55733 -6.445109733555843 -7.382033340507806 -4.051040107732229 2 5 0
2741 686 1 1.71637987 -11.74376171733885 -7.015577192435434 -12.997067965151736 0 1 0
60 15 3 -1.11466 -9.739312357636788 -7.603454855064307 -15.233024856742714 1 1 0
3677 686 9 -1.71637987 -11.804353239048405 -7.021519153481285 -13.032027401851831 0 1 0
1200 300 3 -1.11466 -10.05665577042285 -7.931286644026207 -8.648914531212208 1 -1 0
989 248 1 1.71637987 -8.561532408589631 -4.40519720188634 15.876405852936712 -1 -1 0
27 7 2 0.55733 -6.85068753944 -4.678699629333539 12.874705771547243 1 2 0
3133 7 9 -1.71637987 -6.569366928208206 -4.525078907187122 13.822270787821264 1 2 0
1976 494 3 -1.11466 -8.081550367187477 -5.282312565431206 -12.589126004929016 1 -4 0
1199 300 2 0.55733 -10.483507585299229 -7.691710447360093 -7.9726939198744695 1 -1 0
3604 494 9 -1.71637987 -8.082922825108792 -5.316988989519432 -12.300076704948937 1 -4 0
1973 494 1 1.71637987 -8.067037921500386 -5.298321874917071 -12.355993539433838 1 -4 0
3356 234 9 -1.71637987 -6.880437825513722 -4.614965398334306 -9.558139405238451 2 2 0
1695 424 2 0.55733 -7.647611719561692 -7.772145825345899 -8.454540367332532 -1 -1 0
2455 614 2 0.55733 -8.550280998923663 -7.939033155698216 9.172052747897455 0 2 0
58 15 2 0.55733 -10.215542067285424 -6.954024458910261 -15.45214712762576 1 1 0
935 234 2 0.55733 -7.505375032403166 -4.754396561280927 -10.330670922626535 2 2 0
1975 494 2 0.55733 -8.282016003066232 -4.522206895772987 -12.872576248830974 1 -4 0
366 92 2 0.55733 -9.719892338032553 -5.203734189582921 17.00424246331279 1 -2 0
739 185 2 0.55733 -9.54263147738427 -8.043899529711792 19.201564207362924 0 0 0
1696 424 3 -1.11466 -6.84273904262432 -7.889120465169294 -8.638525472402842 -1 -1 0
1768 442 3 -1.11466 -10.105420719016967 -5.998124042321233 -10.558410224054946 -1 1 0
1765 442 1 1.71637987 -10.300408222023163 -5.882094778296549 -10.621244181787032 -1 1 0
3545 442 9 -1.71637987 -10.343997844941054 -5.855331636688202 -10.654484375112224 -1 1 0
1767 442 2 0.55733 -9.45189890827471 -5.875302164678064 -11.062116382264668 -1 1 0
1766 442 2 0.55733 -10.181832803234899 -6.467234026803315 -9.8719954103482 -1 1 0
2752 688 3 -1.11466 -7.194354525561321 -4.976697116092674 -6.621232043124805 1 1 0
3531 425 9 -1.71637987 -11.557751383219218 -7.262183418782327 -6.802334913672275 0 1 0
1697 425 1 1.71637987 -11.628183299412099 -7.291258413428198 -6.74893442194526 0 1 0
1700 425 3 -1.11466 -11.674847801162413 -7.499164358763101 -6.646678908653956 0 1 0
2690 673 2 0.55733 -10.189303004636233 -5.863151856478584 -6.722664029340054 1 -1 0
2691 673 2 0.55733 -8.966815707085667 -4.967338407331055 -6.67418931157918 1 -1 0
2689 673 1 1.71637987 -9.922917283929584 -4.944981916915913 -6.721590829495566 1 -1 0
2692 673 3 -1.11466 -9.784127881039977 -5.132411708176906 -6.711404952795803 1 -1 0
3804 673 9 -1.71637987 -9.978015120827829 -4.886402727371547 -6.71587125367013 1 -1 0
3830 688 9 -1.71637987 -7.392110560730004 -5.18217933282393 -6.528399033290139 1 1 0
2749 688 1 1.71637987 -7.307981858727268 -5.169339743748721 -6.544959680826959 1 1 0
2750 688 2 0.55733 -7.136469303458033 -4.910415375195183 -7.449537449582115 1 1 0
1987 497 2 0.55733 -9.500071361909658 -6.744118241598856 -4.335822864881373 3 2 0
737 185 1 1.71637987 -8.82678755485469 -7.450992106771243 18.97115098294999 0 0 0
1986 497 2 0.55733 -8.881822239952552 -5.453986893668235 -4.835734344705395 3 2 0
623 156 2 0.55733 -11.731330737370024 -5.039004091518283 14.349253647235479 0 0 0
1985 497 1 1.71637987 -9.214535781334009 -5.879602466401004 -4.046343905685997 3 2 0
463 116 2 0.55733 -12.336695357375206 -5.709313241979654 0.13791992057300428 -1 -2 0
3595 497 9 -1.71637987 -9.208634857784233 -5.834700958194518 -3.972891916502608 3 2 0
1988 497 3 -1.11466 -9.204824022735984 -5.9683260996632255 -4.2633362196040405 3 2 0
992 248 3 -1.11466 -8.572468703888108 -4.378446673836716 15.646364803806712 -1 -1 0
270 68 2 0.55733 -10.88811511758958 -4.468743142562213 6.946345073265937 1 1 0
1264 316 3 -1.11466 -6.3150056413521956 -7.480365673424722 -14.650080548383023 -1 -1 0
1110 278 2 0.55733 -11.740895808545718 -7.7073134306253355 19.23766600331355 3 0 0
1263 316 2 0.55733 -6.872869243555599 -7.8987026293216 -14.193549606235516 -1 -1 0
3903 748 9 -1.71637987 -7.550463476030522 -8.13301530611511 13.866087682528798 2 0 0
1693 424 1 1.71637987 -6.793955401219283 -8.096205184614735 -8.736862884280997 -1 -1 0
2744 686 3 -1.11466 -11.512174718917207 -6.988846090545062 -12.97475785260915 0 1 0
3145 33 9 -1.71637987 -11.32309816557738 -4.651555318139348 -2.5102894615086147 -1 3 0
3331 196 9 -1.71637987 -9.651447100625152 -6.795913772889112 2.2261565339698914 1 2 0
783 196 2 0.55733 -9.518564304312019 -5.925706483390425 1.7333327320611425 1 2 0
784 196 3 -1.11466 -9.378072073209678 -6.6801483315285095 2.0599708554750777 1 2 0
3758 633 9 -1.71637987 -7.641664385920325 -4.898999237423844 -1.8438325016031167 -1 2 0
2530 633 2 0.55733 -6.904800331794926 -5.554459542871028 -1.6394191716257749 -1 2 0
2529 633 1 1.71637987 -7.627207539593874 -4.966162607806306 -1.8601925118329568 -1 2 0
2532 633 3 -1.11466 -7.583214883321452 -5.177261213801066 -1.9475802899990604 -1 2 0
131 33 2 0.55733 -11.62286068205502 -5.397956634094507 -1.9194994730016657 -1 3 0
781 196 1 1.71637987 -9.556438340143238 -6.767168536957635 2.1853481155672987 1 2 0
782 196 2 0.55733 -8.708877264172706 -7.175853515928151 2.0132902383057982 1 2 0
132 33 3 -1.11466 -11.212491734679897 -4.91041261430756 -2.455781097912431 -1 3 0
2531 633 2 0.55733 -8.130492486023757 -5.4343033682857405 -2.524030878259767 -1 2 0
130 33 2 0.55733 -10.501923292719587 -5.038496231057512 -2.873447361680217 -1 3 0
129 33 1 1.71637987 -11.31339639029033 -4.701967914798515 -2.4961234525896034 -1 3 0
1454 364 2 0.55733 -10.721836317732743 -6.458112101538946 3.477071280147582 -1 0 0
3376 248 9 -1.71637987 -8.578796852929226 -4.424934088779221 15.94873606760883 -1 -1 0
25 7 1 1.71637987 -6.53701114622533 -4.563931690807326 13.770515921877708 1 2 0
1027 257 2 0.55733 -11.500913510087608 -7.652825757026075 -1.6623314355514567 0 1 0
28 7 3 -1.11466 -6.448490981081783 -4.70420263549005 13.606276903917509 1 2 0
1441 361 1 1.71637987 -9.49256484617984 -6.65482336101535 12.737261264358718 1 0 0
3556 424 9 -1.71637987 -6.760057382722512 -8.154153627684876 -8.773875844894357 -1 -1 0
1197 300 1 1.71637987 -9.87590107820588 -7.791770612025351 -8.704170215231334 1 -1 0
1699 425 2 0.55733 -11.119044882890273 -7.739919775756811 -6.073566630117044 0 1 0
933 234 1 1.71637987 -6.868458411690371 -4.666305709796073 -9.622685452915993 2 2 0
1698 425 2 0.55733 -12.371202888510506 -7.868230314350857 -6.9174507554593125 0 1 0
936 234 3 -1.11466 -6.831986601505369 -4.749838014794725 -9.839021311643005 2 2 0
489 123 1 1.71637987 -7.004249445440187 -8.154939702946212 -4.085730895366653 2 5 0
2454 614 2 0.55733 -7.463917068467024 -8.269712300061693 10.176845931006456 0 2 0
1455 364 2 0.55733 -11.697923277422849 -5.441844045130888 4.03522825374399 -1 0 0
1189 298 1 1.71637987 -6.943551252252168 -5.742073587088339 4.763191184598042 -1 0 0
2368 592 3 -1.11466 -10.843431684927099 -7.588815679082751 6.568940401071738 -2 0 0
1456 364 3 -1.11466 -11.054735347094585 -5.972912452186131 4.067674993125034 -1 0 0
3481 364 9 -1.71637987 -10.917940909268955 -5.954966882585436 4.348049071118645 -1 0 0
362 91 2 0.55733 -10.65990662199988 -5.8412974381708285 9.615859400411624 3 0 0
364 91 3 -1.11466 -10.857125987102576 -6.554038718355608 10.000909531535271 3 0 0
361 91 1 1.71637987 -10.844057666181202 -6.545360137706172 10.235521235145 3 0 0
3208 91 9 -1.71637987 -10.81644924306383 -6.556118501081531 10.29156566295533 3 0 0
363 91 2 0.55733 -11.097728871330098 -7.290533370090972 9.69053826500033 3 0 0
999 250 2 0.55733 -9.170483657048694 -6.581445087460066 7.175826843690338 -1 0 0
3379 250 9 -1.71637987 -8.361847641159514 -6.3227230533973575 7.650536095335716 -1 0 0
1000 250 3 -1.11466 -8.54856115722136 -6.159017738281293 7.536545261762071 -1 0 0
998 250 2 0.55733 -8.409331866540155 -5.337094817858846 7.589607886492866 -1 0 0
997 250 1 1.71637987 -8.38637924881479 -6.292089915912725 7.640581293707923 -1 0 0
1192 298 3 -1.11466 -6.918820976912926 -5.954147178928809 4.8558146511955735 -1 0 0
1453 364 1 1.71637987 -10.949364759057694 -5.9875920514688765 4.275140112023545 -1 0 0
2365 592 1 1.71637987 -10.650100139094041 -7.7198434058626235 6.544524224743818 -2 0 0
3606 592 9 -1.71637987 -10.627421322758291 -7.725901134639903 6.555781592213785 -2 0 0
2367 592 2 0.55733 -10.966165984761904 -7.026279090330973 5.965046235714637 -2 0 0
1190 298 2 0.55733 -7.30520351777285 -6.060805240906201 5.588598188897796 -1 0 0
1674 419 2 0.55733 -9.92032062028975 -4.640151710999251 4.609232231225495 4 1 0
3421 298 9 -1.71637987 -6.948335710793569 -5.695549348786258 4.7486098190094275 -1 0 0
3454 361 9 -1.71637987 -9.449786190565515 -6.71673930964902 12.772028275390882 1 0 0
368 92 3 -1.11466 -10.344801920268214 -5.206474431933394 17.558292162969966 1 -2 0
2322 581 2 0.55733 -6.343564737126374 -7.570114580795703 -16.952584363852317 -1 0 0
269 68 1 1.71637987 -11.110896343961898 -4.723449855761084 7.841479744437445 1 1 0
3793 653 9 -1.71637987 -6.4744903934856985 -4.304604407725525 11.056068505602946 2 1 0
3844 717 9 -1.71637987 -7.201651999268864 -7.929145369521909 1.9018601423845716 2 1 0
3240 92 9 -1.71637987 -10.309932214992166 -5.4115210883436 17.769781466305474 1 -2 0
1974 494 2 0.55733 -7.918784376731797 -5.988547696560362 -13.000600896489434 1 -4 0
2991 748 2 0.55733 -8.26393240493258 -7.657009837542216 13.322917401958843 2 0 0
2742 686 2 0.55733 -11.08097769167573 -7.116668454025727 -13.67640134864104 0 1 0
365 92 1 1.71637987 -10.337157238900145 -5.381833009027209 17.715168323096663 1 -2 0
2727 682 2 0.55733 -10.699666829773811 -8.219475771010803 1.819427968840138 3 0 0
3256 156 9 -1.71637987 -10.9387405718862 -4.4628813342377125 14.090496724880616 0 0 0
367 92 2 0.55733 -10.991526647606738 -4.688290454481141 17.6495189868585 1 -2 0
738 185 2 0.55733 -9.254584393014785 -6.698232676687689 18.56527659270073 0 0 0
1191 298 2 0.55733 -6.460806741830468 -6.483786173773925 4.401631089456595 -1 0 0
2849 713 1 1.71637987 -9.607457055417726 -4.352261276833722 0.521544135226657 0 -1 0
272 68 3 -1.11466 -11.13281306929772 -4.511123970857603 7.743148246438835 1 1 0
621 156 1 1.71637987 -11.00347135914915 -4.46092559465177 14.115761519295901 0 0 0
2366 592 2 0.55733 -11.292431531183531 -7.761409201314173 7.249547477018482 -2 0 0
624 156 3 -1.11466 -11.21730311758975 -4.400348797763609 14.193281023965916 0 0 0
1444 361 3 -1.11466 -9.685847569517996 -6.549848234687805 12.654884588418843 1 0 0
1443 361 2 0.55733 -9.912302284489016 -6.791117409371656 11.888669691035691 1 0 0
3300 185 9 -1.71637987 -8.767107975757146 -7.488436500680578 18.941706687722768 0 0 0
1442 361 2 0.55733 -10.0362256077328 -6.002796306003084 13.176965248034133 1 0 0
740 185 3 -1.11466 -9.058369078059513 -7.418948895177592 18.935972315316523 0 0 0
3243 300 9 -1.71637987 -9.830096401143123 -7.734517040138286 -8.736181316374248 1 -1 0
3192 68 9 -1.71637987 -11.153374177850202 -4.779394251776968 7.859388569766154 1 1 0
2989 748 1 1.71637987 -7.632184542743585 -8.107685972647968 13.880161938408595 2 0 0
2851 713 2 0.55733 -9.02593270964676 -4.45895532251555 -0.22952027981216305 0 -1 0
2609 653 1 1.71637987 -6.480612028673878 -4.200218968684389 11.011724555808293 2 1 0
2751 688 2 0.55733 -6.914771380578529 -4.478770283456141 -6.014565826021143 1 1 0
3214 116 9 -1.71637987 -12.321362341727808 -6.373931185478575 -0.6341067288490454 -1 -2 0
2863 716 2 0.55733 -9.084842705642673 -8.262328423306823 17.213287385427563 2 1 0
2865 717 1 1.71637987 -7.1380594649602545 -7.962880069564557 1.897198902936347 2 1 0
3853 713 9 -1.71637987 -9.667138394240094 -4.368920301453061 0.5567478985788017 0 -1 0
474 119 2 0.55733 -9.002612259195319 -4.322701413636481 20.169398614685857 0 -1 0
2483 621 2 0.55733 -10.33745740303311 -4.250832909272634 -16.522277342747536 0 1 0
1675 419 2 0.55733 -8.467335155270398 -4.278880082044405 4.844906078036767 4 1 0
2852 713 3 -1.11466 -9.4041874760186 -4.245222660447889 0.4832939957889918 0 -1 0
2868 717 3 -1.11466 -7.036809479893396 -8.163810134599016 1.9631636883491521 2 1 0