LAMMPS data file via write_data, version 29 Sep 2021, timestep = 6000000

3910 atoms
14 atom types
3109 bonds
9 bond types
2305 angles
3 angle types
768 impropers
1 improper types

-12.418372 12.418372 xlo xhi
-12.418372 12.418372 ylo yhi
-55.882675 55.882675 zlo zhi

Masses

1 15.2
2 1
3 0.001
4 15.2
5 15.2
6 22.2
7 126.2
8 34.2
9 0.8
10 0.8
11 0.8
12 0.8
13 0.8
14 0.8

PairIJ Coeffs # lj/cut/thole/long/omp

1 1 0.18985 3.18395 0.97825 2.6 12
1 2 0 1.59197 0 2.6 12
1 3 0 1.59197 0 2.6 12
1 4 0.16326 3.19381 0.96402 2.6 12
1 5 0.16326 3.19381 0.96402 2.6 12
1 6 0.13292 2.72788 0.48454 2.6 12
1 7 0.13706 4.15423 2.60182 2.6 12
1 8 0.13466 3.76133 1.89993 2.6 12
1 9 0.01055 3.18395 0.97825 2.6 12
1 10 0.00907 3.19381 0.96402 2.6 12
1 11 0.00907 3.19381 0.96402 2.6 12
1 12 0.00505 2.72788 0.48454 2.6 12
1 13 0.00091 4.15423 2.60182 2.6 12
1 14 0.00332 3.76133 1.89993 2.6 12
2 2 0 0 0 2.6 12
2 3 0 0 0 2.6 12
2 4 0 1.60183 0 2.6 12
2 5 0 1.60183 0 2.6 12
2 6 0 1.1359 0 2.6 12
2 7 0 2.56225 0 2.6 12
2 8 0 2.16935 0 2.6 12
2 9 0 1.59197 0 2.6 12
2 10 0 1.60183 0 2.6 12
2 11 0 1.60183 0 2.6 12
2 12 0 1.1359 0 2.6 12
2 13 0 2.56225 0 2.6 12
2 14 0 2.16935 0 2.6 12
3 3 0 0 0 2.6 12
3 4 0 1.60183 0 2.6 12
3 5 0 1.60183 0 2.6 12
3 6 0 1.1359 0 2.6 12
3 7 0 2.56225 0 2.6 12
3 8 0 2.16935 0 2.6 12
3 9 0 1.59197 0 2.6 12
3 10 0 1.60183 0 2.6 12
3 11 0 1.60183 0 2.6 12
3 12 0 1.1359 0 2.6 12
3 13 0 2.56225 0 2.6 12
3 14 0 2.16935 0 2.6 12
4 4 0.1404 3.20367 0.95 2.6 12
4 5 0.1404 3.20367 0.95 2.6 12
4 6 0.11431 2.73773 0.47749 2.6 12
4 7 0.11787 4.16409 2.56398 2.6 12
4 8 0.1158 3.77119 1.8723 2.6 12
4 9 0.00907 3.19381 0.96402 2.6 12
4 10 0.0078 3.20367 0.95 2.6 12
4 11 0.0078 3.20367 0.95 2.6 12
4 12 0.00434 2.73773 0.47749 2.6 12
4 13 0.00079 4.16409 2.56398 2.6 12
4 14 0.00285 3.77119 1.8723 2.6 12
5 5 0.1404 3.20367 0.95 2.6 12
5 6 0.11431 2.73773 0.47749 2.6 12
5 7 0.11787 4.16409 2.56398 2.6 12
5 8 0.1158 3.77119 1.8723 2.6 12
5 9 0.00907 3.19381 0.96402 2.6 12
5 10 0.0078 3.20367 0.95 2.6 12
5 11 0.0078 3.20367 0.95 2.6 12
5 12 0.00434 2.73773 0.47749 2.6 12
5 13 0.00079 4.16409 2.56398 2.6 12
5 14 0.00285 3.77119 1.8723 2.6 12
6 6 0.09304 2.2718 0.24 2.6 12
6 7 0.09589 3.69815 1.28872 2.6 12
6 8 0.09424 3.30525 0.94106 2.6 12
6 9 0.00726 2.72788 0.48454 2.6 12
6 10 0.00624 2.73773 0.47749 2.6 12
6 11 0.00624 2.73773 0.47749 2.6 12
6 12 0.00348 2.2718 0.24 2.6 12
6 13 0.00063 3.69815 1.28872 2.6 12
6 14 0.00229 3.30525 0.94106 2.6 12
7 7 0.09874 5.1245 6.92 2.6 12
7 8 0.09708 4.7316 5.0532 2.6 12
7 9 0.00726 4.15423 2.60182 2.6 12
7 10 0.00624 4.16409 2.56398 2.6 12
7 11 0.00624 4.16409 2.56398 2.6 12
7 12 0.00348 3.69815 1.28872 2.6 12
7 13 0.00063 5.1245 6.92 2.6 12
7 14 0.00229 4.7316 5.0532 2.6 12
8 8 0.09543 4.3387 3.69 2.6 12
8 9 0.00726 3.76133 1.89993 2.6 12
8 10 0.00624 3.77119 1.8723 2.6 12
8 11 0.00624 3.77119 1.8723 2.6 12
8 12 0.00348 3.30525 0.94106 2.6 12
8 13 0.00063 4.7316 5.0532 2.6 12
8 14 0.00229 4.3387 3.69 2.6 12
9 9 0 3.18395 0.97825 2.6 12
9 10 0 3.19381 0.96402 2.6 12
9 11 0 3.19381 0.96402 2.6 12
9 12 0 2.72788 0.48454 2.6 12
9 13 0 4.15423 2.60182 2.6 12
9 14 0 3.76133 1.89993 2.6 12
10 10 0 3.20367 0.95 2.6 12
10 11 0 3.20367 0.95 2.6 12
10 12 0 2.73773 0.47749 2.6 12
10 13 0 4.16409 2.56398 2.6 12
10 14 0 3.77119 1.8723 2.6 12
11 11 0 3.20367 0.95 2.6 12
11 12 0 2.73773 0.47749 2.6 12
11 13 0 4.16409 2.56398 2.6 12
11 14 0 3.77119 1.8723 2.6 12
12 12 0 2.2718 0.24 2.6 12
12 13 0 3.69815 1.28872 2.6 12
12 14 0 3.30525 0.94106 2.6 12
13 13 0 5.1245 6.92 2.6 12
13 14 0 4.7316 5.0532 2.6 12
14 14 0 4.3387 3.69 2.6 12

Bond Coeffs # harmonic/omp

1 10000 0.9572
2 10000 0.24034
3 10000 1.278
4 500 0
5 500 0
6 500 0
7 500 0
8 500 0
9 500 0

Angle Coeffs # harmonic/omp

1 10000 104.52
2 10000 52.26
3 10000 116.8

Improper Coeffs # harmonic/omp

1 10000 0

Atoms # full

2595 649 2 0.55733 -10.984145733219728 -9.647149127604738 -1.3805779512746037 4 1 0
2613 654 1 1.71637987 -11.814342917589567 -11.60564124880277 1.4659495909881521 2 0 0
3170 798 14 -3.45723606 -9.197831440747658 -11.739856976596348 -9.152664110479424 5 1 0
1300 325 3 -1.11466 -8.517413464737206 -11.859417051055777 -18.214425188069775 2 1 0
1299 325 2 0.55733 -8.63441552583858 -11.055686510448863 -18.021538107425872 2 1 0
2223 556 2 0.55733 -10.074857405557944 -10.287740715176781 -13.828512448308201 2 2 0
2224 556 3 -1.11466 -10.249927369991386 -10.31507473698364 -14.643275914553946 2 2 0
2221 556 1 1.71637987 -10.223229829266923 -10.110025501107962 -14.755429818086744 2 2 0
2222 556 2 0.55733 -10.50747263660876 -10.947574055274849 -15.122725862903014 2 2 0
3696 556 9 -1.71637987 -10.204237294043072 -10.02048314768427 -14.788213207186475 2 2 0
2579 645 2 0.55733 -9.17498746541534 -9.240316263762795 -16.301918560844456 2 -3 0
2578 645 2 0.55733 -7.763684280449293 -8.867278210550703 -16.70593382183536 2 -3 0
3778 645 9 -1.71637987 -8.54459797010313 -9.38340372913079 -17.067260234965804 2 -3 0
2580 645 3 -1.11466 -8.503791102922834 -9.239770233838676 -16.795163686229664 2 -3 0
2577 645 1 1.71637987 -8.52831261313378 -9.365870109895344 -16.992611252337092 2 -3 0
1380 345 3 -1.11466 -10.53277302587451 -10.701700550112049 -11.79263198300854 2 1 0
1377 345 1 1.71637987 -10.407248391168563 -10.643076387872453 -11.984329399652633 2 1 0
3684 345 9 -1.71637987 -10.373212681205814 -10.609274305913543 -12.042640977408118 2 1 0
1378 345 2 0.55733 -11.327200627307747 -10.448532456789767 -11.803054551312016 2 1 0
1297 325 1 1.71637987 -8.712558386699857 -11.989502259925954 -18.212723017533698 2 1 0
3400 325 9 -1.71637987 -8.759687923792086 -12.029868881401994 -18.185666285575444 2 1 0
1170 293 2 0.55733 -9.709537416078422 -10.214872891191883 18.796734456940865 -1 -2 0
3546 397 9 -1.71637987 -6.421630852791103 -10.425488261006905 6.198333192604874 0 0 0
916 229 3 -1.11466 -12.3780798338925 -12.139468260005593 6.260715876316261 2 2 0
3055 764 2 0.55733 -11.79802966582101 -10.66398362000389 4.555879523462024 3 0 0
3004 751 3 -1.11466 -7.614776097846969 -8.337513224242802 -2.3009998360667607 2 2 0
30 8 2 0.55733 -7.435654361506765 -8.407347126515935 15.641208074172596 1 -1 0
1755 439 2 0.55733 -8.488324735657308 -9.296034258944628 -11.309817349491519 2 0 0
751 188 2 0.55733 -12.113162177748384 -10.950796322423804 -0.24144424471313253 1 2 0
1379 345 2 0.55733 -10.106799028483247 -11.130608297228635 -11.219712255499982 2 1 0
3525 439 9 -1.71637987 -7.968933940746342 -8.524634341716576 -10.973964487300112 2 0 0
1753 439 1 1.71637987 -7.941028726618084 -8.564479385954748 -11.02895884722428 2 0 0
1756 439 3 -1.11466 -7.998483088611777 -8.6239314942638 -11.249552350382176 2 0 0
3493 368 9 -1.71637987 -8.791205273085517 -11.334931839284975 -3.7331749994270806 3 1 0
1469 368 1 1.71637987 -8.740807396055326 -11.333148502787342 -3.7384466157841847 3 1 0
520 130 3 -1.11466 -8.876555906662828 -9.756837434453578 -6.847370326623814 1 1 0
517 130 1 1.71637987 -8.99107491788361 -9.737138393673234 -6.642295028200255 1 1 0
3270 130 9 -1.71637987 -9.032892857642242 -9.726839037681858 -6.596192000630344 1 1 0
518 130 2 0.55733 -9.080866666825587 -10.430326950466652 -7.294212533982226 1 1 0
1471 368 2 0.55733 -8.326539029798464 -10.783335697820545 -4.401978255902574 3 1 0
3092 786 7 3.73310092 -11.890306720664169 -10.732344911796678 -4.671058719719966 1 1 0
1472 368 3 -1.11466 -8.572978547464285 -11.395440880068373 -3.8923985347355416 3 1 0
1864 466 3 -1.11466 -12.035433470991688 -9.955472849754146 15.70917319287909 0 2 0
3086 780 6 1.68760387 -11.319629736694989 -8.772317504028964 -6.443004363507562 2 1 0
3639 780 12 -0.68760387 -11.279350427165577 -8.727271985544462 -6.474471272951123 2 1 0
519 130 2 0.55733 -8.334786347980055 -9.142679450870624 -7.00647855137729 1 1 0
1470 368 2 0.55733 -8.32423186355651 -12.18891926910831 -3.8353011774582435 3 1 0
1518 380 2 0.55733 -11.83256232341166 -10.48641980931791 -7.745171377688151 2 1 0
3104 798 8 2.45723606 -9.168672798885119 -11.681728764942017 -9.175988887326021 5 1 0
2659 665 2 0.55733 -10.760863321466392 -11.910811862568327 -18.372661316683452 1 0 0
3053 764 1 1.71637987 -11.754716623200336 -9.965124204447031 3.9047272269092486 3 0 0
1171 293 2 0.55733 -8.719303983875012 -11.255739354601216 18.312712607050337 -1 -2 0
3408 293 9 -1.71637987 -9.577154983521881 -11.208796170869771 18.768492384832914 -1 -2 0
346 87 2 0.55733 -8.440581942964638 -9.747627258301955 4.02254931109143 0 -2 0
347 87 2 0.55733 -7.225866055521748 -8.839119854774193 4.04592812089783 0 -2 0
63 16 2 0.55733 -7.952579495413278 -10.510878739844454 0.5084509095533919 1 1 0
61 16 1 1.71637987 -8.549736084391672 -9.784544018820766 0.6814777763864637 1 1 0
64 16 3 -1.11466 -8.417889029335177 -9.900265736832429 0.8354633735083433 1 1 0
3823 649 9 -1.71637987 -10.088895050085027 -9.39733282761427 -1.7463244755851774 4 1 0
1097 275 1 1.71637987 -6.834962740510674 -11.495620704940732 17.487329806129797 -2 0 0
2593 649 1 1.71637987 -10.113579586452595 -9.415142340886284 -1.6957063253350297 4 1 0
2614 654 2 0.55733 -11.447720996202756 -10.924213837135069 2.0260920150334423 2 0 0
2596 649 3 -1.11466 -10.175719752019802 -9.468345838806002 -1.4763540563586817 4 1 0
3133 16 9 -1.71637987 -8.559942872836968 -9.736292905924003 0.6450840175286071 1 1 0
2594 649 2 0.55733 -9.554517228526105 -9.446239578337538 -0.9192580405043547 4 1 0
1863 466 2 0.55733 -11.884969184667286 -10.599557243347348 16.218789377041215 0 2 0
62 16 2 0.55733 -8.486838389143543 -9.631015825781025 1.6217504338154485 1 1 0
735 184 2 0.55733 -12.041315598235748 -12.229764987696777 11.204772344059915 3 1 0
913 229 1 1.71637987 -12.378069908117771 -11.949984373872814 6.123360793091611 2 2 0
3895 764 9 -1.71637987 -11.679447050533973 -9.937355528923458 3.858930426788806 3 0 0
348 87 3 -1.11466 -7.810837690802222 -9.312753781229967 3.6865199015496692 0 -2 0
3389 275 9 -1.71637987 -6.840878123953903 -11.455117767361598 17.524645267417988 -2 0 0
3773 654 9 -1.71637987 -11.850964281748816 -11.585312480063733 1.4153552566961591 2 0 0
3659 522 9 -1.71637987 -6.435891999289324 -9.7372367094446 14.847843756599225 2 -1 0
345 87 1 1.71637987 -7.796711179204333 -9.326903607264516 3.453651258404804 0 -2 0
3202 87 9 -1.71637987 -7.843983627212862 -9.306097730240941 3.387194880535595 0 -2 0
1172 293 3 -1.11466 -9.405657731477426 -10.985473018619041 18.701965329149687 -1 -2 0
2088 522 3 -1.11466 -6.388536314511955 -9.830782350998291 14.569405934592842 2 -1 0
2616 654 3 -1.11466 -11.693286027931967 -11.633931837765674 1.6645588924284094 2 0 0
3594 442 9 -1.71637987 -11.521577239918042 -9.752176793430898 13.04006923922589 1 -1 0
3896 738 9 -1.71637987 -9.099321989309905 -8.421732089154464 12.442552923104172 1 2 0
1298 325 2 0.55733 -7.821581183335403 -12.273444120473815 -18.412809438002903 2 1 0
2085 522 1 1.71637987 -6.395296277356772 -9.76522334877283 14.793342071629814 2 -1 0
3002 751 2 0.55733 -8.396524042640507 -8.618371485336572 -2.2280919434145945 2 2 0
3804 665 9 -1.71637987 -11.745038594578485 -12.075700982426127 -18.124205240840837 1 0 0
1861 466 1 1.71637987 -12.188613153018924 -9.798045613177608 15.791889617886921 0 2 0
1962 491 2 0.55733 -8.189326508485172 -10.704192193317766 5.996700283224462 2 1 0
1961 491 1 1.71637987 -9.113373390822371 -10.715489696886873 5.754334643927367 2 1 0
3612 491 9 -1.71637987 -9.12249076067637 -10.760496418550114 5.689532836184638 2 1 0
3193 40 9 -1.71637987 -9.208533064030666 -10.261367372383877 8.994308343986493 -1 -3 0
160 40 3 -1.11466 -9.471343416321297 -10.237708986451107 8.832151464853036 -1 -3 0
1963 491 2 0.55733 -9.444084829794967 -9.853705312164664 5.999654314086961 2 1 0
157 40 1 1.71637987 -9.271888667057233 -10.258413853548348 8.952653058674995 -1 -3 0
1964 491 3 -1.11466 -8.99478050917566 -10.54066085761638 5.8523868733608415 2 1 0
158 40 2 0.55733 -9.636042641863192 -9.464589003741688 8.564555253637664 -1 -3 0
1999 500 2 0.55733 -7.6360137717460255 -9.984634568659594 9.930765455617854 1 -3 0
159 40 2 0.55733 -9.901473355274648 -10.946401205365945 8.739952136262607 -1 -3 0
3614 500 9 -1.71637987 -6.946481488869457 -9.716364707870525 10.579470178368402 1 -3 0
1997 500 1 1.71637987 -7.027064900064648 -9.72330221865811 10.622307196673038 1 -3 0
2000 500 3 -1.11466 -7.205993706057952 -9.876309708321012 10.637273353796806 1 -3 0
1588 397 3 -1.11466 -6.213114015581066 -10.329262821331199 5.979394623701439 0 0 0
2657 665 1 1.71637987 -11.657847851660486 -12.098042086941815 -18.093779889302947 1 0 0
495 124 2 0.55733 -9.7942665841125 -8.339034502329001 -14.574503162426454 2 -1 0
76 19 3 -1.11466 -8.625300614677661 -10.834758962389992 12.761205989329671 1 1 0
171 43 2 0.55733 -8.134514629537238 -12.027814330302196 14.640995688724587 1 -1 0
767 192 2 0.55733 -12.3551244736983 -8.409031184980876 16.721830126880004 1 1 0
2038 510 2 0.55733 -7.21900004529909 -8.512050456556317 0.870145568477451 2 3 0
915 229 2 0.55733 -11.8046049676362 -12.129643924869814 6.8647129499453765 2 2 0
2991 748 2 0.55733 -9.050676372147688 -12.32426424556223 4.899275689771595 2 0 0
1765 442 1 1.71637987 -11.506371940610432 -9.782097346671291 12.978710034479699 1 -1 0
1768 442 3 -1.11466 -11.41118909469618 -9.754498842504159 12.767157618934922 1 -1 0
1766 442 2 0.55733 -11.868786414750058 -10.052867860737827 12.137005324279354 1 -1 0
75 19 2 0.55733 -8.87670421274358 -10.04471648210284 12.843494480719878 1 1 0
1169 293 1 1.71637987 -9.533772966251398 -11.15507147227203 18.800607459979815 -1 -2 0
3003 751 2 0.55733 -6.886214413601025 -8.740054085861695 -2.248352747277911 2 2 0
448 112 3 -1.11466 -11.094832687263054 -12.293312377787847 17.08151877398828 1 0 0
74 19 2 0.55733 -8.702760494644183 -11.36634581578626 12.124214100749487 1 1 0
1098 275 2 0.55733 -7.248210953377738 -11.78325590552819 16.676307079250904 -2 0 0
1767 442 2 0.55733 -10.672017438321964 -9.367955555146267 12.766040820835906 1 -1 0
3056 764 3 -1.11466 -11.938132699641574 -10.025356487199788 4.0383068948896605 3 0 0
1998 500 2 0.55733 -7.299400355436113 -10.224440323674589 11.389563454605169 1 -3 0
3123 19 9 -1.71637987 -8.466275189769705 -10.935200933950265 12.994919273036626 1 1 0
445 112 1 1.71637987 -11.284697488505259 -12.166825738387796 17.02738675579397 1 0 0
1100 275 3 -1.11466 -6.751274431852275 -11.65089459592063 17.332956834965042 -2 0 0
73 19 1 1.71637987 -8.514162952750073 -10.921419558668362 12.94832041367394 1 1 0
447 112 2 0.55733 -10.5996947716306 -11.946692630416466 17.655974704671188 1 0 0
3206 112 9 -1.71637987 -11.356787548826626 -12.117303821517917 16.998021946851456 1 0 0
3359 229 9 -1.71637987 -12.409421412296544 -11.906360485463914 6.091187859755654 2 2 0
2660 665 3 -1.11466 -11.461206401013472 -12.145551083811299 -17.9793166514488 1 0 0
1585 397 1 1.71637987 -6.360898278891134 -10.416447411731808 6.139607856754341 0 0 0
2102 526 2 0.55733 -10.584555448933092 -8.538289376259133 3.506153176764708 -1 1 0
2087 522 2 0.55733 -7.11784184673785 -10.09129206460756 14.25819504390575 2 -1 0
3851 786 13 -4.73310092 -12.339131687729475 -10.116301050986408 -5.447234056107478 1 1 0
1862 466 2 0.55733 -11.731050894374253 -9.777965359012411 14.953435266643632 0 2 0
3593 466 9 -1.71637987 -12.243032868433003 -9.711244296564784 15.81988220701585 0 2 0
2949 738 1 1.71637987 -9.059770212328132 -8.326931550437752 12.401810183132163 1 2 0
3765 450 9 -1.71637987 -9.77244761139167 -8.29851052376312 18.520025070163133 0 0 0
650 163 2 0.55733 -9.257301312721884 -5.786442078322779 -20.03342362589088 3 0 0
2103 526 2 0.55733 -9.212067763798466 -8.059292990038964 3.075457853692394 -1 1 0
2890 723 2 0.55733 -8.185245796312975 -6.441636618195848 -18.325009486583532 1 -1 0
2096 524 3 -1.11466 -7.269533814273691 -4.953136866273323 -17.403085461229196 -1 -2 0
1192 298 3 -1.11466 -11.137360157147066 -6.453235309353312 -17.14899989584182 0 1 0
3670 524 9 -1.71637987 -7.2095254839152645 -5.095685902620842 -17.634150096843022 -1 -2 0
2093 524 1 1.71637987 -7.199814190909209 -5.065472473902203 -17.597883308174623 -1 -2 0
496 124 3 -1.11466 -9.6538487825985 -7.605455991680667 -14.943716637648647 2 -1 0
493 124 1 1.71637987 -9.441641305079497 -7.511650863184314 -14.89823991228343 2 -1 0
3284 124 9 -1.71637987 -9.416491253812826 -7.462720402571255 -14.866883581829917 2 -1 0
1151 288 2 0.55733 -10.239693625116521 -5.990592247370979 -13.990177129413267 4 0 0
3398 288 9 -1.71637987 -10.69690273568756 -5.1719411308996985 -13.64108172473065 4 0 0
1152 288 3 -1.11466 -10.462909992056797 -5.350777516800759 -13.504599100994271 4 0 0
1149 288 1 1.71637987 -10.651537593278643 -5.2313545365237815 -13.578582286577959 4 0 0
494 124 2 0.55733 -10.13573798724102 -7.149804288058983 -15.449151329736148 2 -1 0
1912 478 3 -1.11466 -6.940159681466648 -6.934294556710468 -13.125614849489548 0 0 0
1911 478 2 0.55733 -7.530390572273031 -6.793907097880101 -13.697439434886878 0 0 0
1910 478 2 0.55733 -6.504296657443309 -6.403126556268995 -12.651822516760546 0 0 0
2889 723 1 1.71637987 -8.794506582795101 -7.065573201540859 -18.714267038280415 1 -1 0
3842 723 9 -1.71637987 -8.839665068696455 -7.0386095055093545 -18.757840097930266 1 -1 0
3605 478 9 -1.71637987 -6.885315017567508 -7.231765636613749 -13.037295960881348 0 0 0
2892 723 3 -1.11466 -8.648284161673052 -7.10251111123349 -18.536287567651716 1 -1 0
1909 478 1 1.71637987 -6.888016654044374 -7.162671521127725 -13.092540122614473 0 0 0
1190 298 2 0.55733 -11.265313105894085 -5.631092488185331 -17.070777180416083 0 1 0
1191 298 2 0.55733 -10.831036697480185 -6.896166216620721 -17.785830269638797 0 1 0
3649 298 9 -1.71637987 -11.20564993319909 -6.602884802969241 -16.878933154937588 0 1 0
2039 510 2 0.55733 -6.759388151163858 -7.084168318503822 1.084626472397018 2 3 0
1189 298 1 1.71637987 -11.19650055287899 -6.579877486966166 -16.961647770994567 0 1 0
2471 618 2 0.55733 -11.811229152320738 -7.5634470016139375 -11.940068451589582 2 -1 0
3861 712 9 -1.71637987 -9.035600930288856 -4.652011697453761 -11.521531156449045 1 -1 0
1800 450 3 -1.11466 -9.895967448522882 -8.183677377062434 18.275018532468312 0 0 0
1150 288 2 0.55733 -10.128068633145956 -5.063264842231957 -12.7968940707879 4 0 0
2845 712 1 1.71637987 -8.965270660366452 -4.568823295520338 -11.456978913665077 1 -1 0
2718 680 2 0.55733 -11.868278286712629 -4.50353807175432 10.439941505216153 4 0 0
418 105 2 0.55733 -9.785827833618626 -6.117128296543519 -11.1309948783106 0 1 0
3801 689 9 -1.71637987 -11.817911086379098 -5.650707103528052 15.057130666307115 -1 2 0
2094 524 2 0.55733 -6.974714194766037 -5.2758373581683005 -16.69282491069011 -1 -2 0
150 38 2 0.55733 -9.502075694265487 -5.087831364273618 -7.244829335160845 2 1 0
3621 484 9 -1.71637987 -7.158848935935693 -7.313079786457604 19.65274811615905 1 0 0
32 8 3 -1.11466 -7.825094469472256 -7.964062576070155 16.229078918895855 1 -1 0
766 192 2 0.55733 -12.017893813184449 -6.951099939565915 16.482235941597008 1 1 0
2104 526 3 -1.11466 -10.041471331559912 -8.009577659729395 3.1583557615498954 -1 1 0
417 105 1 1.71637987 -10.322246176368 -6.901870068241848 -11.029202272809306 0 1 0
3243 105 9 -1.71637987 -10.39035344559208 -6.936702850913973 -11.01878781027884 0 1 0
23 6 2 0.55733 -10.967692344710306 -7.389163619557537 -9.353108177629961 3 1 0
1996 499 3 -1.11466 -7.912533670360452 -4.389904932355772 9.194900564210249 3 3 0
3182 38 9 -1.71637987 -9.351871153590206 -4.829382495622636 -8.163142186858137 2 1 0
420 105 3 -1.11466 -10.092437140698774 -6.8903550648501986 -11.068498639712828 0 1 0
419 105 2 0.55733 -9.712885864050424 -7.6312733032526525 -11.124599240027312 0 1 0
3834 686 9 -1.71637987 -11.373204576147907 -5.758712575848682 -3.533011376432739 -1 0 0
1288 322 3 -1.11466 -7.0888576236344045 -6.4445286256628105 -4.861576228203963 1 0 0
1285 322 1 1.71637987 -7.283048217225317 -6.341242702720386 -4.943253215710703 1 0 0
2076 519 3 -1.11466 -8.096873148275622 -7.30289281145427 -8.675799521960094 2 3 0
2074 519 2 0.55733 -8.49773206507405 -6.5724846118733184 -8.667954580597234 2 3 0
2073 519 1 1.71637987 -7.985901043313658 -7.3550521756212435 -8.47666759185587 2 3 0
3669 519 9 -1.71637987 -7.941696213431655 -7.368416853715018 -8.45599482982035 2 3 0
1158 290 2 0.55733 -9.12809224210943 -6.627509535905655 -5.4204763477782345 2 1 0
1160 290 3 -1.11466 -9.957276666624805 -6.543180132436375 -5.452328494230092 2 1 0
1157 290 1 1.71637987 -10.045975262374855 -6.551043736628623 -5.668442370040906 2 1 0
3421 290 9 -1.71637987 -10.066919812175218 -6.553507038248548 -5.730173484974871 2 1 0
1159 290 2 0.55733 -10.515783406882496 -6.436377918096938 -4.840880529573444 2 1 0
2075 519 2 0.55733 -8.026355877900505 -7.877515751953943 -9.27687036463125 2 3 0
3453 322 9 -1.71637987 -7.366257315159098 -6.272332123185394 -4.944568903711768 1 0 0
3113 6 9 -1.71637987 -11.312534874980678 -7.416034408945328 -8.3837502201688 3 1 0
24 6 3 -1.11466 -11.07696279844787 -7.258795054229983 -8.535789845149862 3 1 0
152 38 3 -1.11466 -9.515071399350456 -4.696374499177133 -7.981698458245391 2 1 0
21 6 1 1.71637987 -11.263148573387529 -7.366789019746786 -8.442398210267566 3 1 0
22 6 2 0.55733 -10.633177075000559 -6.80453041320864 -7.994526090386716 3 1 0
2744 686 3 -1.11466 -11.397572973995782 -5.5953695706616475 -3.253642053685536 -1 0 0
2741 686 1 1.71637987 -11.381251542269894 -5.73718066993052 -3.4420192544852446 -1 0 0
149 38 1 1.71637987 -9.366514137592494 -4.782303446194833 -8.141594045729319 2 1 0
1479 370 2 0.55733 -7.881019369833246 -4.778413087110358 -4.678712117138657 2 0 0
1287 322 2 0.55733 -7.130770690025553 -6.67319200173875 -4.061387940923443 1 0 0
1071 268 2 0.55733 -6.220516363420562 -7.171405921255054 -8.892564385163169 1 2 0
2101 526 1 1.71637987 -10.136932902320865 -7.815213474846322 3.0702184479387484 -1 1 0
1936 484 3 -1.11466 -7.3680034049704926 -7.194892574428488 19.545069414386656 1 0 0
1286 322 2 0.55733 -6.472475437289178 -6.521221456187558 -5.417908514709076 1 0 0
491 123 2 0.55733 -6.266793299286898 -6.758338132445551 -2.0377184487186897 -1 1 0
2950 738 2 0.55733 -9.123981838176709 -7.900423666184866 11.546929146963455 1 2 0
1825 457 1 1.71637987 -7.183550292790269 -5.30824625969544 17.388618882901145 1 0 0
2743 686 2 0.55733 -11.969677430941168 -5.827481500107159 -2.693250705638892 -1 0 0
2294 574 2 0.55733 -12.247898421962756 -4.386442048076315 -6.882129021351127 0 2 0
3677 510 9 -1.71637987 -6.453340314693397 -7.887286625122035 0.6476052161374568 2 3 0
1638 410 2 0.55733 -11.898183858835493 -4.5475615385535315 3.9206479947263673 0 0 0
220 55 3 -1.11466 -6.234426283268263 -5.9929642566925985 10.642422983448489 2 -1 0
809 203 1 1.71637987 -8.684486454406805 -5.98329824077745 -0.4258736136913597 0 -1 0
811 203 2 0.55733 -8.264466265331096 -6.671254603101434 -0.9400047641437301 0 -1 0
2753 689 1 1.71637987 -11.797550295371774 -5.6018241038530565 15.013715462997503 -1 2 0
2307 577 2 0.55733 -10.958432039332344 -6.978699751192233 1.6158418117610869 0 -1 0
3717 577 9 -1.71637987 -11.287352675122676 -6.553739406842515 0.7631067458018516 0 -1 0
2308 577 3 -1.11466 -11.000971890721612 -6.616326809462913 0.8654598129943153 0 -1 0
2306 577 2 0.55733 -10.397921578247717 -6.403317881059573 0.3300906573375503 0 -1 0
2305 577 1 1.71637987 -11.219646477884377 -6.564630523483849 0.7925285457845046 0 -1 0
1631 408 2 0.55733 -7.897106235836922 -5.288387643280097 2.483244591344607 -1 0 0
3328 203 9 -1.71637987 -8.750041288346354 -5.9645198579882805 -0.43134031967485914 0 -1 0
812 203 3 -1.11466 -8.455663447105842 -6.0231430802288015 -0.4503721860848463 0 -1 0
3001 751 1 1.71637987 -7.5967334381826985 -8.107870075422227 -2.3423906110277652 2 2 0
3892 751 9 -1.71637987 -7.580350424796592 -8.012650644816404 -2.3385804280380045 2 2 0
2891 723 2 0.55733 -8.675044501559645 -7.871583804547666 -18.214639720324953 1 -1 0
810 203 2 0.55733 -7.963642101810446 -5.493222485628739 -0.034798024494560764 0 -1 0
3528 408 9 -1.71637987 -7.053728447970191 -5.3204510779833845 1.9939388501122874 -1 0 0
1632 408 3 -1.11466 -7.147631349817389 -5.106116370791498 2.1660253810138057 -1 0 0
1629 408 1 1.71637987 -7.054014613654598 -5.274108802446744 2.034215036360276 -1 0 0
2037 510 1 1.71637987 -6.508485351796412 -7.905959982457188 0.6667593891087831 2 3 0
1826 457 2 0.55733 -8.107572718545901 -5.064672047914362 17.400673046395934 1 0 0
3731 609 9 -1.71637987 -9.814766457778825 -4.871040596849051 17.685929319992415 3 -1 0
882 221 2 0.55733 -12.118635805065656 -4.51738734407961 -14.275182753482156 2 1 0
710 178 2 0.55733 -10.240427188517085 -6.2594943069566185 4.019584470622261 0 1 0
1797 450 1 1.71637987 -9.804807539042654 -8.260606206043258 18.47608138125907 0 0 0
3293 163 9 -1.71637987 -9.659174578120226 -4.911983208774518 -20.265567310463517 3 0 0
1993 499 1 1.71637987 -8.052282051038897 -4.360949081670086 9.380468167178167 3 3 0
326 82 2 0.55733 -10.638716163501316 -5.360559247422385 7.346077211373401 1 1 0
3289 170 9 -1.71637987 -7.315973489766029 -4.90424238972138 5.190903180346697 -1 0 0
3632 499 9 -1.71637987 -8.102603725795142 -4.391860691220004 9.460668725858685 3 3 0
649 163 1 1.71637987 -9.660958578593988 -4.9552580954951 -20.280168617268565 3 0 0
1933 484 1 1.71637987 -7.202664187709566 -7.2923210473346325 19.67941684197778 1 0 0
1934 484 2 0.55733 -8.027323686909547 -7.682121162942236 19.387681866254876 1 0 0
709 178 1 1.71637987 -10.130982556108567 -5.364338869117819 4.336181663450922 0 1 0
3117 178 9 -1.71637987 -10.143161389936404 -5.280465677220613 4.299295577835492 0 1 0
712 178 3 -1.11466 -10.123546629411495 -5.5625542723371835 4.462867304754523 0 1 0
3103 797 8 2.45723606 -10.5532860155492 -7.8527982472566515 7.4658551379641 0 1 0
2666 667 2 0.55733 -6.830424492942548 -7.278712279091613 8.190133883332907 5 -1 0
218 55 2 0.55733 -6.854419960808764 -5.452900129591421 10.504257203053733 2 -1 0
3812 667 9 -1.71637987 -7.319574050685046 -6.504580869114937 7.767821727607416 5 -1 0
711 178 2 0.55733 -9.980690909520888 -5.45616890573864 5.27914892764672 0 1 0
1828 457 3 -1.11466 -7.297221729767574 -5.1714419946770045 17.235152261138172 1 0 0
1827 457 2 0.55733 -6.824655092173384 -4.869543860580891 16.61794410997738 1 0 0
786 197 2 0.55733 -9.384120562885508 -5.983314220385417 10.117208022020606 1 0 0
3196 82 9 -1.71637987 -10.495006721631109 -4.533545117378718 6.791138905360564 1 1 0
787 197 2 0.55733 -10.042734619530572 -7.009548013023279 9.21720588316498 1 0 0
3343 197 9 -1.71637987 -9.827765551133606 -6.84571803619483 10.22326161562379 1 0 0
785 197 1 1.71637987 -9.822832121687071 -6.833678746947045 10.13024333888061 1 0 0
2665 667 1 1.71637987 -7.317787875517481 -6.579626269427086 7.758385221907749 5 -1 0
788 197 3 -1.11466 -9.778495263705631 -6.697438989893666 9.94393911856525 1 0 0
328 82 3 -1.11466 -10.391459075078236 -4.615931819556222 7.061480717079693 1 1 0
325 82 1 1.71637987 -10.489358719960387 -4.552174018777252 6.8576333779141585 1 1 0
2667 667 2 0.55733 -8.166775832458214 -6.965475096749786 7.546734830090741 5 -1 0
2668 667 3 -1.11466 -7.390544199426737 -6.797798732156683 7.80319540593603 5 -1 0
3671 797 14 -3.45723606 -10.535065546641997 -7.802036277965289 7.569209246913494 0 1 0
1994 499 2 0.55733 -7.783759084128378 -5.185237575706366 8.980929792276923 3 3 0
652 163 3 -1.11466 -9.510064718758406 -5.083657812700223 -20.405110555210168 3 0 0
1799 450 2 0.55733 -9.354465382319802 -8.136583736979858 17.641653466550107 0 0 0
1966 492 2 0.55733 -6.532873472869094 -6.936263192434186 5.415213063405287 0 0 0
677 170 1 1.71637987 -7.3107790202693455 -4.858138643707305 5.18797059953172 -1 0 0
680 170 3 -1.11466 -7.244064939268611 -4.636753823176701 5.2327446960261295 -1 0 0
3674 526 9 -1.71637987 -10.160428139686198 -7.722428272605709 3.066447877027895 -1 1 0
2651 663 2 0.55733 -12.390606972739748 -7.097520504413697 -15.638134937523478 3 -2 0
678 170 2 0.55733 -7.4618289222824155 -4.349609222552638 5.985419486885909 -1 0 0
622 156 2 0.55733 -9.291827219363446 -4.559840699997765 -1.7450648410119176 1 0 0
768 192 3 -1.11466 -12.217069026248511 -7.617600279945475 16.942782116368587 1 1 0
3118 8 9 -1.71637987 -8.124998082066462 -7.96188317862095 16.258738429660706 1 -1 0
1430 358 2 0.55733 -6.2872498145512825 -6.443225034334478 12.734027170939736 3 -2 0
727 182 2 0.55733 -8.134877932469111 -5.558424245806343 14.313457653373789 2 -1 0
651 163 2 0.55733 -9.309641411263508 -4.760079452013321 -21.147936654484326 3 0 0
1429 358 1 1.71637987 -6.566489524012192 -6.586961012417549 13.637086531288748 3 -2 0
2754 689 2 0.55733 -12.227793421281785 -4.749766652727309 15.095098982112024 -1 2 0
2040 510 3 -1.11466 -6.701494762567943 -7.862419566417816 0.7922914014457023 2 3 0
2846 712 2 0.55733 -8.117714059150329 -4.821972521719465 -11.095156557840273 1 -1 0
2095 524 2 0.55733 -7.767913081625636 -4.297234100891422 -17.535880120225727 -1 -2 0
765 192 1 1.71637987 -12.23573122414218 -7.575086020165652 17.173660935234032 1 1 0
3294 192 9 -1.71637987 -12.252183790928328 -7.555600377252165 17.228033025182473 1 1 0
3481 358 9 -1.71637987 -6.637417208600337 -6.560167205619743 13.65149912445961 3 -2 0
2756 689 3 -1.11466 -11.706885949743565 -5.388736288484309 14.965060020348798 -1 2 0
2436 609 3 -1.11466 -9.968976704710666 -4.700487793742069 17.53646648801646 3 -1 0
2435 609 2 0.55733 -10.561112895181125 -5.0383762632527205 17.055779295696315 3 -1 0
29 8 1 1.71637987 -8.059487032022737 -7.978397831400245 16.222814421844273 1 -1 0
3065 767 1 1.71637987 -11.932533067739637 -6.770449919062703 12.200675258186289 0 2 0
3067 767 2 0.55733 -11.218334069874649 -6.84127797684696 11.569801978227463 0 2 0
2433 609 1 1.71637987 -9.874140889752452 -4.847092765949562 17.692422543886515 3 -1 0
3066 767 2 0.55733 -11.81331773548632 -7.515032174317799 12.78933339428617 0 2 0
1432 358 3 -1.11466 -6.353237647700939 -6.621736566598383 13.546471915588965 3 -2 0
1935 484 2 0.55733 -7.199318149114253 -6.414530444653339 19.299524291258617 1 0 0
3068 767 3 -1.11466 -11.764219431628232 -6.9352306477054215 12.191981492803617 0 2 0