LAMMPS data file via write_data, version 29 Sep 2021, timestep = 6000000

3910 atoms
14 atom types
3109 bonds
9 bond types
2305 angles
3 angle types
768 impropers
1 improper types

-12.418372 12.418372 xlo xhi
-12.418372 12.418372 ylo yhi
-55.882675 55.882675 zlo zhi

Masses

1 15.2
2 1
3 0.001
4 15.2
5 15.2
6 22.2
7 126.2
8 34.2
9 0.8
10 0.8
11 0.8
12 0.8
13 0.8
14 0.8

PairIJ Coeffs # lj/cut/thole/long/omp

1 1 0.18985 3.18395 0.97825 2.6 12
1 2 0 1.59197 0 2.6 12
1 3 0 1.59197 0 2.6 12
1 4 0.16326 3.19381 0.96402 2.6 12
1 5 0.16326 3.19381 0.96402 2.6 12
1 6 0.13292 2.72788 0.48454 2.6 12
1 7 0.13706 4.15423 2.60182 2.6 12
1 8 0.13466 3.76133 1.89993 2.6 12
1 9 0.01055 3.18395 0.97825 2.6 12
1 10 0.00907 3.19381 0.96402 2.6 12
1 11 0.00907 3.19381 0.96402 2.6 12
1 12 0.00505 2.72788 0.48454 2.6 12
1 13 0.00091 4.15423 2.60182 2.6 12
1 14 0.00332 3.76133 1.89993 2.6 12
2 2 0 0 0 2.6 12
2 3 0 0 0 2.6 12
2 4 0 1.60183 0 2.6 12
2 5 0 1.60183 0 2.6 12
2 6 0 1.1359 0 2.6 12
2 7 0 2.56225 0 2.6 12
2 8 0 2.16935 0 2.6 12
2 9 0 1.59197 0 2.6 12
2 10 0 1.60183 0 2.6 12
2 11 0 1.60183 0 2.6 12
2 12 0 1.1359 0 2.6 12
2 13 0 2.56225 0 2.6 12
2 14 0 2.16935 0 2.6 12
3 3 0 0 0 2.6 12
3 4 0 1.60183 0 2.6 12
3 5 0 1.60183 0 2.6 12
3 6 0 1.1359 0 2.6 12
3 7 0 2.56225 0 2.6 12
3 8 0 2.16935 0 2.6 12
3 9 0 1.59197 0 2.6 12
3 10 0 1.60183 0 2.6 12
3 11 0 1.60183 0 2.6 12
3 12 0 1.1359 0 2.6 12
3 13 0 2.56225 0 2.6 12
3 14 0 2.16935 0 2.6 12
4 4 0.1404 3.20367 0.95 2.6 12
4 5 0.1404 3.20367 0.95 2.6 12
4 6 0.11431 2.73773 0.47749 2.6 12
4 7 0.11787 4.16409 2.56398 2.6 12
4 8 0.1158 3.77119 1.8723 2.6 12
4 9 0.00907 3.19381 0.96402 2.6 12
4 10 0.0078 3.20367 0.95 2.6 12
4 11 0.0078 3.20367 0.95 2.6 12
4 12 0.00434 2.73773 0.47749 2.6 12
4 13 0.00079 4.16409 2.56398 2.6 12
4 14 0.00285 3.77119 1.8723 2.6 12
5 5 0.1404 3.20367 0.95 2.6 12
5 6 0.11431 2.73773 0.47749 2.6 12
5 7 0.11787 4.16409 2.56398 2.6 12
5 8 0.1158 3.77119 1.8723 2.6 12
5 9 0.00907 3.19381 0.96402 2.6 12
5 10 0.0078 3.20367 0.95 2.6 12
5 11 0.0078 3.20367 0.95 2.6 12
5 12 0.00434 2.73773 0.47749 2.6 12
5 13 0.00079 4.16409 2.56398 2.6 12
5 14 0.00285 3.77119 1.8723 2.6 12
6 6 0.09304 2.2718 0.24 2.6 12
6 7 0.09589 3.69815 1.28872 2.6 12
6 8 0.09424 3.30525 0.94106 2.6 12
6 9 0.00726 2.72788 0.48454 2.6 12
6 10 0.00624 2.73773 0.47749 2.6 12
6 11 0.00624 2.73773 0.47749 2.6 12
6 12 0.00348 2.2718 0.24 2.6 12
6 13 0.00063 3.69815 1.28872 2.6 12
6 14 0.00229 3.30525 0.94106 2.6 12
7 7 0.09874 5.1245 6.92 2.6 12
7 8 0.09708 4.7316 5.0532 2.6 12
7 9 0.00726 4.15423 2.60182 2.6 12
7 10 0.00624 4.16409 2.56398 2.6 12
7 11 0.00624 4.16409 2.56398 2.6 12
7 12 0.00348 3.69815 1.28872 2.6 12
7 13 0.00063 5.1245 6.92 2.6 12
7 14 0.00229 4.7316 5.0532 2.6 12
8 8 0.09543 4.3387 3.69 2.6 12
8 9 0.00726 3.76133 1.89993 2.6 12
8 10 0.00624 3.77119 1.8723 2.6 12
8 11 0.00624 3.77119 1.8723 2.6 12
8 12 0.00348 3.30525 0.94106 2.6 12
8 13 0.00063 4.7316 5.0532 2.6 12
8 14 0.00229 4.3387 3.69 2.6 12
9 9 0 3.18395 0.97825 2.6 12
9 10 0 3.19381 0.96402 2.6 12
9 11 0 3.19381 0.96402 2.6 12
9 12 0 2.72788 0.48454 2.6 12
9 13 0 4.15423 2.60182 2.6 12
9 14 0 3.76133 1.89993 2.6 12
10 10 0 3.20367 0.95 2.6 12
10 11 0 3.20367 0.95 2.6 12
10 12 0 2.73773 0.47749 2.6 12
10 13 0 4.16409 2.56398 2.6 12
10 14 0 3.77119 1.8723 2.6 12
11 11 0 3.20367 0.95 2.6 12
11 12 0 2.73773 0.47749 2.6 12
11 13 0 4.16409 2.56398 2.6 12
11 14 0 3.77119 1.8723 2.6 12
12 12 0 2.2718 0.24 2.6 12
12 13 0 3.69815 1.28872 2.6 12
12 14 0 3.30525 0.94106 2.6 12
13 13 0 5.1245 6.92 2.6 12
13 14 0 4.7316 5.0532 2.6 12
14 14 0 4.3387 3.69 2.6 12

Bond Coeffs # harmonic/omp

1 10000 0.9572
2 10000 0.24034
3 10000 1.278
4 500 0
5 500 0
6 500 0
7 500 0
8 500 0
9 500 0

Angle Coeffs # harmonic/omp

1 10000 104.52
2 10000 52.26
3 10000 116.8

Improper Coeffs # harmonic/omp

1 10000 0

Atoms # full

772 193 3 -1.11466 -9.311336245369366 -12.105516247730518 -3.403471823215919 1 -2 0
2127 532 2 0.55733 -11.455037152857113 -12.158239242497537 -19.102782970636405 2 -1 0
2836 709 3 -1.11466 -12.181402972156654 -9.081347732247746 5.256546453511471 0 -1 0
2833 709 1 1.71637987 -12.3540668365519 -9.061598917014045 5.097346233626176 0 -1 0
1714 429 2 0.55733 -7.700807530319641 -12.216273331620265 -1.9414716808704366 3 1 0
2028 507 3 -1.11466 -7.015600827734609 -8.523442251233297 -5.409709635578166 2 -1 0
1331 333 2 0.55733 -9.48684080039386 -9.490327801471567 15.630308191261792 -1 1 0
3323 193 9 -1.71637987 -9.29151570516047 -11.8883714125498 -3.1779553949393313 1 -2 0
3163 53 9 -1.71637987 -11.033740999104763 -11.625825971628155 -11.832474657533496 0 -1 0
1192 298 3 -1.11466 -11.709953159248187 -9.272278113747527 9.331347782558126 2 1 0
3666 540 9 -1.71637987 -6.524287616842675 -10.61289860442335 -17.98539033267192 2 3 0
1854 464 2 0.55733 -11.908026740307113 -9.660876163357502 -14.114344987343658 3 0 0
3104 798 8 2.45723606 -10.498118289559322 -10.227911439896637 -17.180992975852803 2 1 0
2157 540 1 1.71637987 -6.507336127697505 -10.532683220694551 -18.04094267473585 2 3 0
1856 464 3 -1.11466 -11.341780489299845 -10.201640492075509 -14.405982887698471 3 0 0
1853 464 1 1.71637987 -11.23497873042918 -10.32926471555332 -14.242194533603197 3 0 0
3642 798 14 -3.45723606 -10.582995034776955 -10.253032329599236 -17.12389261555145 2 1 0
1855 464 2 0.55733 -11.099566215495264 -10.362961975448734 -15.188467612487644 3 0 0
3623 464 9 -1.71637987 -11.224419846408894 -10.347747196837554 -14.147417098097355 3 0 0
2522 631 2 0.55733 -8.970255628078666 -9.332774401933573 -13.652549981437694 2 1 0
2521 631 1 1.71637987 -8.470105563500125 -8.581065900935508 -13.974869325173986 2 1 0
2524 631 3 -1.11466 -8.435912314621099 -8.80836172006841 -14.023547945772785 2 1 0
830 208 2 0.55733 -6.830724618216394 -11.976925655101248 -17.174273755111408 1 1 0
967 242 2 0.55733 -6.727605112053934 -8.829829612264502 3.5414647283111034 0 2 0
210 53 2 0.55733 -11.231235290186547 -11.033654050019763 -12.617264076289878 0 -1 0
2523 631 2 0.55733 -7.799278908505268 -8.961246256961898 -14.541805363205048 2 1 0
212 53 3 -1.11466 -11.19355158767908 -11.681048378180336 -12.093450354058543 0 -1 0
209 53 1 1.71637987 -11.033245804213744 -11.660249689162468 -11.92397750646656 0 -1 0
3755 631 9 -1.71637987 -8.511452478960965 -8.501081250037258 -13.966860084638117 2 1 0
2274 569 2 0.55733 -11.307832458810932 -12.023512867671553 2.259506157609766 0 2 0
2125 532 1 1.71637987 -12.35907939077182 -12.407861179668167 -19.292066251458188 2 -1 0
2982 746 2 0.55733 -9.077242291193704 -10.88204230879333 -10.727475955087211 3 1 0
3872 746 9 -1.71637987 -8.153686462577653 -10.516156766183839 -10.676111929029656 3 1 0
2984 746 3 -1.11466 -8.3937227651672 -10.459886344332785 -10.503323736043642 3 1 0
2981 746 1 1.71637987 -8.201701455915199 -10.508132417891007 -10.632085628427793 3 1 0
2983 746 2 0.55733 -8.277216577838173 -9.89571223642946 -9.899464355000843 3 1 0
2161 541 1 1.71637987 -11.348983937613665 -9.200606204830803 -4.487537756258953 0 1 0
3668 541 9 -1.71637987 -11.431443038173178 -9.236344776819646 -4.484438349244742 0 1 0
2702 676 2 0.55733 -10.35431150974129 -10.162666433767894 -6.897355872274114 1 -1 0
2703 676 2 0.55733 -9.136010551365265 -10.921873423614961 -6.408243501349997 1 -1 0
2704 676 3 -1.11466 -9.627857146723466 -10.252749125471988 -6.495617039547448 1 -1 0
3262 168 9 -1.71637987 -8.44124546766655 -8.83377134756718 -8.575013531282261 2 -1 0
669 168 1 1.71637987 -8.482246894721428 -8.778473319784498 -8.515153076839063 2 -1 0
672 168 3 -1.11466 -8.538886250884898 -8.648366310557762 -8.328228510616613 2 -1 0
2164 541 3 -1.11466 -11.163064945351456 -9.07380225681296 -4.546963851684338 0 1 0
3842 676 9 -1.71637987 -9.547792155426304 -10.004877688824727 -6.3696153331818675 1 -1 0
2701 676 1 1.71637987 -9.550008535280439 -10.059865653026938 -6.389333188134979 1 -1 0
670 168 2 0.55733 -8.795466704090021 -9.083620521882914 -7.664800609295561 2 -1 0
2162 541 2 0.55733 -10.673036150246215 -9.417558611348388 -5.128759671556642 0 1 0
1307 327 2 0.55733 -6.248973243663748 -9.249231588249584 -0.10456213960474559 0 0 0
2128 532 3 -1.11466 -12.281599695877393 -12.272080900907245 -19.11877274045077 2 -1 0
2950 738 2 0.55733 -12.107523924673613 -10.983893194483663 -10.777606978038273 1 1 0
3716 610 9 -1.71637987 -8.659034691399107 -8.688568961505275 -3.066497284044419 1 2 0
1086 272 2 0.55733 -6.806731549781552 -10.449505754107804 -11.912340437961294 1 0 0
1044 261 3 -1.11466 -6.656361058307645 -8.916743414219393 18.929510293089457 4 3 0
2026 507 2 0.55733 -7.686702772137699 -8.650237007840538 -4.931581902873599 2 -1 0
770 193 2 0.55733 -8.932100099261538 -11.930887109738485 -4.125817933260793 1 -2 0
2834 709 2 0.55733 -12.150794004120218 -9.815180303456037 5.6500379046336775 0 -1 0
1716 429 3 -1.11466 -7.329024106370699 -12.34210951477901 -1.2057845876319149 3 1 0
1713 429 1 1.71637987 -7.369733870182184 -12.17689950169859 -1.0452109503672113 3 1 0
3553 429 9 -1.71637987 -7.387749239050415 -12.083590384456992 -0.9925687773158536 3 1 0
3679 569 9 -1.71637987 -10.55113353027269 -11.472159120618137 2.6088207374250754 0 2 0
2276 569 3 -1.11466 -10.632837588115837 -11.538309282532634 2.324168591070206 0 2 0
2437 610 1 1.71637987 -8.645990267381716 -8.73269674270945 -3.021320920249918 1 2 0
1306 327 2 0.55733 -6.417981316472959 -10.588435329441495 -0.7942535298690248 0 0 0
2273 569 1 1.71637987 -10.586679433539294 -11.461329744310136 2.541567758893237 0 2 0
3377 249 9 -1.71637987 -8.97101768611287 -10.65104490835706 0.6687986117903819 1 3 0
1894 474 2 0.55733 -10.384265211624149 -11.214609932113724 -1.866692576692414 1 -1 0
1895 474 2 0.55733 -10.770060708791917 -10.721354964729104 -0.48744625985640844 1 -1 0
1896 474 3 -1.11466 -10.902970557155196 -10.921270033082807 -1.2852028481884994 1 -1 0
1893 474 1 1.71637987 -11.126734740055 -10.88985457222419 -1.3576130004107434 1 -1 0
3603 474 9 -1.71637987 -11.208075497018271 -10.89199738529625 -1.3986652312090981 1 -1 0
2275 569 2 0.55733 -10.090950559360296 -11.281178377439657 1.7439352950890905 0 2 0
302 76 2 0.55733 -8.721518379677283 -10.505021441344265 2.9818676579639583 -1 3 0
994 249 2 0.55733 -8.42936458317166 -11.186512645633115 0.00800174589196645 1 3 0
993 249 1 1.71637987 -8.888254219212344 -10.624471199122945 0.631798710576044 1 3 0
996 249 3 -1.11466 -8.695164689193035 -10.573614628463394 0.5078173020789543 1 3 0
995 249 2 0.55733 -8.386910315860007 -9.810910786909597 0.6425516602982547 1 3 0
304 76 3 -1.11466 -8.409771694362563 -10.097499830998698 3.638530936535831 -1 3 0
301 76 1 1.71637987 -8.18532900034175 -10.148312658154508 3.6868983217921474 -1 3 0
1055 264 2 0.55733 -12.121441025221614 -8.304976477908241 -1.0273551237504852 -2 0 0
3176 76 9 -1.71637987 -8.12279082318186 -10.160444525453102 3.7113259118360427 -1 3 0
303 76 2 0.55733 -8.764869281617953 -9.545493084292577 4.154177706828806 -1 3 0
3624 509 9 -1.71637987 -7.354481599343548 -8.335789107804912 0.9974438062712333 1 0 0
1555 389 2 0.55733 -6.456015519565522 -9.206499074225997 -9.29594379411667 0 2 0
1042 261 2 0.55733 -6.6164708416438165 -8.298054607720092 19.488391344858606 4 3 0
1191 298 2 0.55733 -11.996326474204137 -9.498806611578585 8.582151587797801 2 1 0
1190 298 2 0.55733 -12.078178752099301 -9.283588511837578 10.079643415892093 2 1 0
2515 629 2 0.55733 -10.598704960071208 -11.197136275509314 6.869284733876453 0 1 0
2516 629 3 -1.11466 -11.424220891248662 -11.290591981070431 6.800071806115379 0 1 0
3749 629 9 -1.71637987 -11.578486857522673 -11.024194466384017 6.771450418164549 0 1 0
1838 460 2 0.55733 -8.964502750905421 -9.641984519897937 6.027926668619046 0 0 0
1840 460 3 -1.11466 -8.828256318520568 -10.15233231906081 6.673189027902334 0 0 0
1837 460 1 1.71637987 -8.879955791612419 -10.377985712387172 6.6328205992742015 0 0 0
1839 460 2 0.55733 -8.541264940618145 -9.995400176604521 7.439927099583518 0 0 0
3602 460 9 -1.71637987 -8.889388456626998 -10.461096437417625 6.616305183236723 0 0 0
2513 629 1 1.71637987 -11.545933785161807 -11.090123380867766 6.793842114974493 0 1 0
2514 629 2 0.55733 -11.891231950098046 -11.980914628084074 6.755025366743994 0 1 0
3082 776 6 1.68760387 -7.538410360485507 -11.84623470037249 5.381548276033142 0 0 0
2163 541 2 0.55733 -11.092811785407466 -8.34801458004746 -4.138852850203583 0 1 0
147 37 2 0.55733 -7.862469824343386 -11.448427528446215 11.514039191201658 -1 1 0
2160 540 3 -1.11466 -6.386060928887747 -10.339428857890415 -18.101349125086927 2 3 0
3465 776 12 -0.68760387 -7.5494949761862005 -11.85017770449806 5.380867428544947 0 0 0
1834 459 2 0.55733 -6.629775501983003 -8.933310561332124 11.43374713025672 0 2 0
3383 298 9 -1.71637987 -11.434448477457417 -9.132249847509343 9.340855455253145 2 1 0
3526 261 9 -1.71637987 -6.878431012262709 -9.075787656674605 18.961856686764285 4 3 0
3006 752 2 0.55733 -6.5343368656322856 -9.618702728854467 14.963482745887477 4 -1 0
769 193 1 1.71637987 -9.305890591643985 -11.93304242207175 -3.243976740248124 1 -2 0
2440 610 3 -1.11466 -8.492586424467195 -8.849111493440395 -2.8888647878946436 1 2 0
1041 261 1 1.71637987 -6.831463236493198 -9.066062858067793 18.962500350255564 4 3 0
2438 610 2 0.55733 -8.755872045109578 -9.594251433764144 -2.6208153281120072 1 2 0
2159 540 2 0.55733 -6.852569689080823 -9.655408004136754 -18.20129368679436 2 3 0
3448 333 9 -1.71637987 -9.557867760983557 -10.37102606547409 15.179496591520943 -1 1 0
3895 752 9 -1.71637987 -6.718722025599451 -10.413090523257033 14.365071702100483 4 -1 0
1332 333 3 -1.11466 -9.345202412406092 -10.231421743922107 15.271897971107474 -1 1 0
2815 704 2 0.55733 -12.306831189313485 -11.311601930535504 -2.5730883716033657 0 -1 0
1189 298 1 1.71637987 -11.488552416750737 -9.190363412136124 9.33113249676658 2 1 0
3008 752 3 -1.11466 -6.559418365418644 -10.380976158178472 14.628037183989937 4 -1 0
1329 333 1 1.71637987 -9.537164731472554 -10.350750427145165 15.212984081672728 -1 1 0
2002 501 2 0.55733 -6.477929288818624 -9.14870248411347 8.502161095678284 -2 -2 0
148 37 3 -1.11466 -8.628945694547713 -11.75007328147719 11.381487712843184 -1 1 0
145 37 1 1.71637987 -8.63523478379534 -11.95524034226178 11.264275460401057 -1 1 0
3005 752 1 1.71637987 -6.683306735316624 -10.395669428566077 14.428895980096007 4 -1 0
682 171 2 0.55733 -10.824155864212782 -9.59814815319199 12.530803459020536 3 1 0
146 37 2 0.55733 -9.375954712657883 -11.447517123370298 11.594800439074186 -1 1 0
3141 37 9 -1.71637987 -8.642160790210447 -12.020210385045912 11.238045085737525 -1 1 0
2439 610 2 0.55733 -7.771892766344601 -8.44933287664661 -2.75694711155662 1 2 0
3406 171 9 -1.71637987 -9.852334582610391 -9.41160595649006 12.618390202626417 3 1 0
684 171 3 -1.11466 -10.035615992300393 -9.529701082754922 12.795100537948219 3 1 0
2510 628 2 0.55733 -10.757597913486808 -11.933199966085716 16.16018633740374 3 0 0
683 171 2 0.55733 -9.682479681407782 -9.759374823291303 13.515099720914243 3 1 0
1330 333 2 0.55733 -8.627500236499664 -10.616760770406461 15.088629095689484 -1 1 0
681 171 1 1.71637987 -9.88865122660867 -9.429772546697091 12.64290943618251 3 1 0
1431 358 2 0.55733 -12.184904624448938 -9.726618861285564 -19.551120395261236 1 0 0
2027 507 2 0.55733 -6.750212401117075 -8.924373230017599 -6.090445423059935 2 -1 0
527 132 2 0.55733 -8.720474598306044 -8.349842731380502 19.340923662068644 1 1 0
3007 752 2 0.55733 -6.215595062576038 -11.09781876722691 14.881210188808694 4 -1 0
2835 709 2 0.55733 -11.705156151511364 -8.401689887061778 5.335150861445726 0 -1 0
3481 343 9 -1.71637987 -9.350727153981762 -8.3123005472119 5.058981492440809 0 -1 0
3640 507 9 -1.71637987 -6.844448898173097 -8.279251279440482 -5.318831240745886 2 -1 0
2025 507 1 1.71637987 -6.879704694227649 -8.346611606493314 -5.340212672246833 2 -1 0
211 53 2 0.55733 -11.632319430008936 -12.391228068399496 -12.075164329466224 0 -1 0
3821 532 9 -1.71637987 -12.368376741659961 -12.418188766956282 -19.31391210095792 2 -1 0
3438 769 10 -1.69141543 -10.547654792142229 -5.584526809049594 -29.658225941897328 1 -7 0
3073 769 4 1.88141543 -10.551707374640417 -5.5865822689253655 -29.648459235360455 1 -7 0
3439 769 11 -1.69141543 -11.815867922647719 -5.380228986583302 -29.68953793538066 1 -7 0
3074 769 5 1.59641543 -11.813585399440825 -5.386455507137815 -29.69090699037524 1 -7 0
3614 769 11 -1.69141543 -9.913925251081817 -5.515028098391266 -30.764014289084464 1 -7 0
3075 769 5 1.59641543 -9.91937299745327 -5.512034809248791 -30.75660377438391 1 -7 0
2336 584 3 -1.11466 -12.313223761987643 -7.266544876605298 11.57377326794522 2 -1 0
2528 632 3 -1.11466 -6.643527586766034 -7.514054526415662 -19.140092274731884 -1 1 0
2033 509 1 1.71637987 -7.374044775097022 -8.261469336146192 1.0493553058949134 1 0 0
3056 764 3 -1.11466 -7.564861370472394 -7.134872648879599 -11.822890102214387 1 2 0
2087 522 2 0.55733 -6.9571989583728175 -4.638301378799871 -16.17587764250486 1 2 0
380 95 3 -1.11466 -10.940720185593163 -5.449078076857307 -17.518903607988616 1 0 0
2086 522 2 0.55733 -8.074616284934411 -5.663199045043841 -16.196185613204644 1 2 0
2088 522 3 -1.11466 -7.298452139070163 -5.385336287227989 -16.32625031823102 1 2 0
1831 458 2 0.55733 -9.202472887744939 -4.706423786397664 -13.359663993597376 0 1 0
1832 458 3 -1.11466 -8.378684854664595 -4.577358756393993 -13.367616787336914 0 1 0
1829 458 1 1.71637987 -8.309947619128012 -4.389687699207908 -13.492076027694027 0 1 0
3591 458 9 -1.71637987 -8.273845022687865 -4.3082054287367715 -13.499167322807446 0 1 0
1830 458 2 0.55733 -7.757805865832198 -5.00781092047914 -13.013603861092642 0 1 0
379 95 2 0.55733 -10.29158077835048 -5.862167384606144 -17.19478898443859 1 0 0
377 95 1 1.71637987 -10.927803663326957 -5.215900623457339 -17.499600729832537 1 0 0
3213 95 9 -1.71637987 -10.905902536883262 -5.144807273789129 -17.49281495629819 1 0 0
1860 465 3 -1.11466 -11.112938401374304 -5.654487090560851 -13.72898775331406 5 1 0
3605 465 9 -1.71637987 -10.924115661002293 -5.448720933060218 -13.581228085611876 5 1 0
1857 465 1 1.71637987 -10.967794535744538 -5.516149035644359 -13.603411252519086 5 1 0
1859 465 2 0.55733 -11.892736025896683 -5.703221131272581 -13.43648490199884 5 1 0
3746 764 9 -1.71637987 -7.689126940165956 -6.927396885569125 -11.659843390685621 1 2 0
3053 764 1 1.71637987 -7.671404207089729 -6.97410834106863 -11.68819817131674 1 2 0
2085 522 1 1.71637987 -7.152399609737066 -5.543950477197005 -16.41797245385143 1 2 0
3813 522 9 -1.71637987 -7.103582824829567 -5.579746105373419 -16.43579745226724 1 2 0
378 95 2 0.55733 -11.627494598503496 -5.730427694401546 -17.89882745426632 1 0 0
1858 465 2 0.55733 -10.757790769966336 -6.01532552114967 -14.39070135954519 5 1 0
3574 584 9 -1.71637987 -12.361951738367932 -6.990401785225974 11.695954964853582 2 -1 0
489 123 1 1.71637987 -9.906630457861228 -7.082230031554133 -15.543692317380328 1 2 0
2527 632 2 0.55733 -7.435006981054732 -7.2498578751528155 -19.142748471306525 -1 1 0
3244 123 9 -1.71637987 -9.9310207182786 -6.994251528945613 -15.553089433704633 1 2 0
490 123 2 0.55733 -9.478496164328678 -7.559407398512365 -14.835988106976563 1 2 0
2101 526 1 1.71637987 -7.942501980038647 -8.126266191849886 8.450151435805848 2 2 0
3910 729 9 -1.71637987 -6.2690600386105935 -5.182830212713378 -7.949730851432213 3 2 0
492 123 3 -1.11466 -9.896254766442697 -7.312839847709989 -15.514673939420218 1 2 0
619 155 2 0.55733 -10.641874596465577 -4.475117478724209 11.48529337691434 -2 -1 0
1195 299 2 0.55733 -7.210629935920046 -4.961607445783681 -4.816548680179547 -1 5 0
3629 526 9 -1.71637987 -7.893386040628218 -8.19803059258788 8.429425783005797 2 2 0
1407 352 2 0.55733 -8.454251025959667 -6.216169693850369 -9.848582082730138 2 1 0
3473 352 9 -1.71637987 -8.69962613311753 -6.173680437319061 -8.868375926548808 2 1 0
1300 325 3 -1.11466 -10.61651997419346 -6.46468193856518 -6.858852852415885 2 0 0
1297 325 1 1.71637987 -10.809319809387839 -6.598830622224615 -6.879777573752156 2 0 0
3437 325 9 -1.71637987 -10.881675659473725 -6.602611133338781 -6.864086453490247 2 0 0
1405 352 1 1.71637987 -8.732363069069814 -6.1284112446170225 -8.937980853252599 2 1 0
1408 352 3 -1.11466 -8.739488604480234 -5.964914556841772 -9.10609568722925 2 1 0
1298 325 2 0.55733 -10.290422171942286 -6.44452998981293 -6.091826492206944 2 0 0
1406 352 2 0.55733 -9.039564730992623 -5.226041866111941 -8.861692902755102 2 1 0
1296 324 3 -1.11466 -9.882502036401672 -7.555483819512214 10.407168370985879 2 2 0
1299 325 2 0.55733 -10.374830758538103 -6.087590793526317 -7.562043369946098 2 0 0
86 22 2 0.55733 -7.058741937152994 -4.504546725003401 -1.9048087275386525 0 1 0
1294 324 2 0.55733 -9.536394441909874 -7.8023928302750045 11.125105761853161 2 2 0
2104 526 3 -1.11466 -8.048366695892575 -7.923441679110251 8.496443414714308 2 2 0
3752 632 9 -1.71637987 -6.625966779779633 -7.772120948530758 -19.082721322666053 -1 1 0
648 162 3 -1.11466 -9.570388877359848 -6.5462052411939755 -4.32576012315223 -1 0 0
3396 162 9 -1.71637987 -9.831188631948246 -6.58502233371512 -4.487216102324866 -1 0 0
646 162 2 0.55733 -9.307005941882359 -7.19588900850112 -3.872373038038878 -1 0 0
645 162 1 1.71637987 -9.781221494243269 -6.570595264880978 -4.421489139643927 -1 0 0
2036 509 3 -1.11466 -7.37302589335408 -8.063933355469882 1.1758452813078464 1 0 0
647 162 2 0.55733 -9.201265606603663 -5.816280078090827 -4.492517354428966 -1 0 0
1254 314 2 0.55733 -12.03251646634707 -4.361209481941283 -10.064799511533217 1 2 0
1369 343 1 1.71637987 -9.375343756560063 -8.207043745781903 5.032753494509881 0 -1 0
1284 321 3 -1.11466 -6.47886210867539 -8.005439223698767 16.112952303425995 -1 -1 0
528 132 3 -1.11466 -9.423150828004795 -7.934665379115614 19.508924508290637 1 1 0
2916 729 3 -1.11466 -6.484136507565988 -5.001088611565425 -8.107204153657493 3 2 0
1293 324 1 1.71637987 -9.824619302062848 -7.337727542784417 10.339615119118209 2 2 0
2915 729 2 0.55733 -7.238155654144197 -5.342158369703482 -8.212971643830599 3 2 0
459 115 2 0.55733 -6.909265032202254 -6.3959713374098035 -1.300250305765874 0 0 0
1056 264 3 -1.11466 -11.610392161186416 -7.646148938932695 -1.0279836698579412 -2 0 0
1295 324 2 0.55733 -10.39699302151866 -7.95448822878642 9.886764517724705 2 2 0
2914 729 2 0.55733 -6.210576549986061 -4.22982327483458 -8.264700048455888 3 2 0
1283 321 2 0.55733 -7.277493221414236 -7.887871421854184 16.323963282056795 -1 -1 0
1196 299 3 -1.11466 -7.80546650772102 -4.653747972834933 -4.319389433171931 -1 5 0
2035 509 2 0.55733 -6.887931382925331 -8.089095403213854 1.854870726766448 1 0 0
760 190 3 -1.11466 -9.354836109010668 -6.416059237789993 -0.05432266700676891 3 3 0
759 190 2 0.55733 -9.92899573356667 -6.995808441904695 -0.22642608791710417 3 3 0
2259 565 2 0.55733 -10.980854646109828 -7.193309851848391 2.454291026971031 -1 1 0
2257 565 1 1.71637987 -10.049824367025748 -7.160102822632498 2.6740631514728324 -1 1 0
2258 565 2 0.55733 -9.658097090877561 -6.61658935818126 1.9900978882851366 -1 1 0
3693 565 9 -1.71637987 -10.017993973542158 -7.196479510765202 2.7568897412438425 -1 1 0
2260 565 3 -1.11466 -10.158156737916807 -7.057264184975343 2.4910529724953574 -1 1 0
1053 264 1 1.71637987 -11.382565695824026 -7.69969182233284 -1.014606694100031 -2 0 0
3281 190 9 -1.71637987 -9.251849348455877 -6.406038338306334 0.2552430505250334 3 3 0
757 190 1 1.71637987 -9.295910259701243 -6.400461419984695 0.17324314742835079 3 3 0
758 190 2 0.55733 -8.955704590198412 -5.881367718533601 -0.5543987717712454 3 3 0
671 168 2 0.55733 -8.45434820952095 -7.825143562114387 -8.437684612636467 2 -1 0
2034 509 2 0.55733 -7.850625698578742 -7.449267897332521 0.8731139737477001 1 0 0
1054 264 2 0.55733 -11.776929557999141 -6.8299341516068175 -1.0669651099071915 -2 0 0
88 22 3 -1.11466 -7.863797401376032 -4.4564401225851515 -1.6902878782635697 0 1 0
887 222 2 0.55733 -11.731884433966162 -4.735461916720993 -6.69279850609876 0 0 0
2692 673 3 -1.11466 -12.217091660682184 -5.412721485222944 4.241472165752782 1 1 0
3054 764 2 0.55733 -6.759024171738823 -7.255627454344445 -11.647260004910923 1 2 0
3361 264 9 -1.71637987 -11.314487452726352 -7.689100434142317 -0.9873531061489322 -2 0 0
525 132 1 1.71637987 -9.433420105017984 -7.717127904085993 19.415959272231902 1 1 0
3888 459 9 -1.71637987 -6.858767410200447 -7.978707807530726 11.207210210178017 0 2 0
383 96 2 0.55733 -6.373965412621715 -5.1252571344441105 3.8640548043360963 -1 2 0
2333 584 1 1.71637987 -12.350358155573208 -7.065266005180976 11.682643594619353 2 -1 0
3235 115 9 -1.71637987 -6.220421358315035 -7.003522695448548 -1.6230578395741118 0 0 0
1281 321 1 1.71637987 -6.445540397092863 -8.143429413586377 15.925162227881723 -1 -1 0
491 123 2 0.55733 -10.281776694389983 -7.757944315564579 -16.10615159086875 1 2 0
2347 587 2 0.55733 -12.267772903631476 -4.695372799195851 8.992761244902136 0 2 0
2525 632 1 1.71637987 -6.614749123176534 -7.741541865117435 -19.089158330662436 -1 1 0
460 115 3 -1.11466 -6.226256409650922 -6.863386460631502 -1.3977015012451734 0 0 0
1518 380 2 0.55733 -7.364629207282667 -7.251829746780797 21.140191017758422 -1 3 0
2837 710 1 1.71637987 -6.931789030823846 -5.4077513711069 10.533066004708925 1 -1 0
2840 710 3 -1.11466 -6.882840450919884 -5.573577674384862 10.37743730680172 1 -1 0
2421 606 1 1.71637987 -11.497784125238827 -6.5743713119910545 6.702551884713323 -1 0 0
2422 606 2 0.55733 -10.657798899980133 -6.647811062282827 7.153719478658503 -1 0 0
3737 606 9 -1.71637987 -11.49089250957214 -6.578587891964582 6.646414360114408 -1 0 0
2424 606 3 -1.11466 -11.449091722065626 -6.516753386748786 6.925636632128231 -1 0 0
2102 526 2 0.55733 -8.034869710539173 -7.37118475554697 7.871879537729352 2 2 0
950 238 2 0.55733 -7.246236924924631 -5.588953080732639 7.0082389490120205 1 2 0
952 238 3 -1.11466 -8.065413142752865 -5.574977305559512 6.855673390573177 1 2 0
949 238 1 1.71637987 -8.147515617254285 -5.7680278966814 6.750664587620916 1 2 0
1370 343 2 0.55733 -9.69788109806478 -7.89838703230744 4.1864084217687285 0 -1 0
1371 343 2 0.55733 -8.692941302963161 -7.58431130885677 5.2766322634862375 0 -1 0
1372 343 3 -1.11466 -9.302310265525595 -8.019844999798625 4.910775319027026 0 -1 0
3867 710 9 -1.71637987 -6.939416304445319 -5.366634878928919 10.56736756616442 1 -1 0
2423 606 2 0.55733 -12.096308295396865 -6.216474493169 7.358228723649861 -1 0 0
3337 238 9 -1.71637987 -8.16815827994092 -5.844285594740097 6.7455669749214495 1 2 0
2335 584 2 0.55733 -11.859301923955028 -7.212946324999404 10.875179859878148 2 -1 0
951 238 2 0.55733 -8.637301917253577 -4.988355713609128 7.0096369351460455 1 2 0
1194 299 2 0.55733 -7.864030432586442 -4.637575020034337 -3.4883816189070727 -1 5 0
2838 710 2 0.55733 -7.032394038939355 -6.353462862045756 10.634495672765967 1 -1 0
2658 665 2 0.55733 -9.503315183921677 -7.858682153556909 17.38982530194716 0 0 0
457 115 1 1.71637987 -6.218903042518955 -6.985731995746554 -1.5987559350745202 0 0 0
1833 459 1 1.71637987 -6.877018400646309 -8.02917388089398 11.246280696364456 0 2 0
3745 665 9 -1.71637987 -9.277119438817474 -7.727230252882669 16.439023735432865 0 0 0
1835 459 2 0.55733 -7.156028254902294 -7.6727206633547915 12.090765677626823 0 2 0
385 97 1 1.71637987 -7.919247221959117 -7.1310650555132415 13.801111138431912 3 0 0
3564 321 9 -1.71637987 -6.455326082595845 -8.202691987696326 15.839310054893335 -1 -1 0
3367 247 9 -1.71637987 -11.010046401515993 -6.264283175664718 15.093237857805667 2 1 0
986 247 2 0.55733 -11.944944322475816 -6.444541519261152 15.26372117064914 2 1 0
3289 155 9 -1.71637987 -10.984840490447487 -4.686177224457683 12.413609185486683 -2 -1 0
386 97 2 0.55733 -7.202907388359767 -7.398757716173948 14.372643205032928 3 0 0
2660 665 3 -1.11466 -9.510581936976726 -7.594893655727732 16.598595887568163 0 0 0
388 97 3 -1.11466 -7.907945344996423 -7.321732354857019 13.933717189285348 3 0 0
985 247 1 1.71637987 -11.037378705244029 -6.245437530794395 15.040356107083772 2 1 0
987 247 2 0.55733 -11.08861067406522 -5.722456791910718 14.241895285448727 2 1 0
2299 575 2 0.55733 -11.225182461466577 -4.501109193706208 16.762064552022064 0 -1 0
2297 575 1 1.71637987 -11.8188364320399 -4.22279635070656 17.45662032134925 0 -1 0
2657 665 1 1.71637987 -9.332008379106279 -7.672600020803291 16.467022774693167 0 0 0
387 97 2 0.55733 -8.578478782129043 -7.81683277350551 13.893171828521327 3 0 0
617 155 1 1.71637987 -11.00737812231804 -4.706563371917378 12.338385635447956 -2 -1 0
1517 380 1 1.71637987 -6.637733975212221 -6.915797795409002 20.616961184985552 -1 3 0
2659 665 2 0.55733 -10.048053582811246 -7.102214310997236 16.194994887400608 0 0 0
2689 673 1 1.71637987 -12.277966500381265 -5.186567114661069 4.259743858791389 1 1 0
988 247 3 -1.11466 -11.229292907646409 -6.180737610289821 14.925821616211996 2 1 0
3214 97 9 -1.71637987 -7.897228950706924 -7.1263204921237095 13.746627299103505 3 0 0
2300 575 3 -1.11466 -11.836622955388968 -4.413049935348486 17.323111241816633 0 -1 0
1836 459 3 -1.11466 -6.884389811391408 -8.139323853623395 11.453956589392446 0 2 0
618 155 2 0.55733 -11.377140484406551 -5.581849990879547 12.216909750706398 -2 -1 0
620 155 3 -1.11466 -11.008282419195659 -4.836357307511696 12.142867355426596 -2 -1 0
3294 22 9 -1.71637987 -7.979775170866357 -4.732967943696652 -1.6323137487436927 0 1 0
3511 380 9 -1.71637987 -6.629767303061449 -6.9580177182501535 20.594249477217566 -1 3 0
1520 380 3 -1.11466 -6.8616624383354825 -6.845649284986545 20.613043408068716 -1 3 0
1519 380 2 0.55733 -7.0224791378006515 -6.230211853753246 20.073712898460872 -1 3 0
3055 764 2 0.55733 -8.053565719308693 -7.4861759948216395 -12.399963743684738 1 2 0
3126 132 9 -1.71637987 -9.446083151124721 -7.701312538781135 19.394695259016576 1 1 0
2690 673 2 0.55733 -11.677458200606534 -5.6749788257302045 4.819612621410829 1 1 0
2839 710 2 0.55733 -6.590235705278961 -5.288590182776451 9.649623623736227 1 -1 0
3418 324 9 -1.71637987 -9.806430310997726 -7.312237821238597 10.320768015897798 2 2 0
2913 729 1 1.71637987 -6.320949027216673 -5.145627121300062 -8.01821779930603 3 2 0