LAMMPS data file via write_data, version 29 Sep 2021, timestep = 6000000

3910 atoms
14 atom types
3109 bonds
9 bond types
2305 angles
3 angle types
768 impropers
1 improper types

-12.418372 12.418372 xlo xhi
-12.418372 12.418372 ylo yhi
-55.882675 55.882675 zlo zhi

Masses

1 15.2
2 1
3 0.001
4 15.2
5 15.2
6 22.2
7 126.2
8 34.2
9 0.8
10 0.8
11 0.8
12 0.8
13 0.8
14 0.8

PairIJ Coeffs # lj/cut/thole/long/omp

1 1 0.18985 3.18395 0.97825 2.6 12
1 2 0 1.59197 0 2.6 12
1 3 0 1.59197 0 2.6 12
1 4 0.16326 3.19381 0.96402 2.6 12
1 5 0.16326 3.19381 0.96402 2.6 12
1 6 0.13292 2.72788 0.48454 2.6 12
1 7 0.13706 4.15423 2.60182 2.6 12
1 8 0.13466 3.76133 1.89993 2.6 12
1 9 0.01055 3.18395 0.97825 2.6 12
1 10 0.00907 3.19381 0.96402 2.6 12
1 11 0.00907 3.19381 0.96402 2.6 12
1 12 0.00505 2.72788 0.48454 2.6 12
1 13 0.00091 4.15423 2.60182 2.6 12
1 14 0.00332 3.76133 1.89993 2.6 12
2 2 0 0 0 2.6 12
2 3 0 0 0 2.6 12
2 4 0 1.60183 0 2.6 12
2 5 0 1.60183 0 2.6 12
2 6 0 1.1359 0 2.6 12
2 7 0 2.56225 0 2.6 12
2 8 0 2.16935 0 2.6 12
2 9 0 1.59197 0 2.6 12
2 10 0 1.60183 0 2.6 12
2 11 0 1.60183 0 2.6 12
2 12 0 1.1359 0 2.6 12
2 13 0 2.56225 0 2.6 12
2 14 0 2.16935 0 2.6 12
3 3 0 0 0 2.6 12
3 4 0 1.60183 0 2.6 12
3 5 0 1.60183 0 2.6 12
3 6 0 1.1359 0 2.6 12
3 7 0 2.56225 0 2.6 12
3 8 0 2.16935 0 2.6 12
3 9 0 1.59197 0 2.6 12
3 10 0 1.60183 0 2.6 12
3 11 0 1.60183 0 2.6 12
3 12 0 1.1359 0 2.6 12
3 13 0 2.56225 0 2.6 12
3 14 0 2.16935 0 2.6 12
4 4 0.1404 3.20367 0.95 2.6 12
4 5 0.1404 3.20367 0.95 2.6 12
4 6 0.11431 2.73773 0.47749 2.6 12
4 7 0.11787 4.16409 2.56398 2.6 12
4 8 0.1158 3.77119 1.8723 2.6 12
4 9 0.00907 3.19381 0.96402 2.6 12
4 10 0.0078 3.20367 0.95 2.6 12
4 11 0.0078 3.20367 0.95 2.6 12
4 12 0.00434 2.73773 0.47749 2.6 12
4 13 0.00079 4.16409 2.56398 2.6 12
4 14 0.00285 3.77119 1.8723 2.6 12
5 5 0.1404 3.20367 0.95 2.6 12
5 6 0.11431 2.73773 0.47749 2.6 12
5 7 0.11787 4.16409 2.56398 2.6 12
5 8 0.1158 3.77119 1.8723 2.6 12
5 9 0.00907 3.19381 0.96402 2.6 12
5 10 0.0078 3.20367 0.95 2.6 12
5 11 0.0078 3.20367 0.95 2.6 12
5 12 0.00434 2.73773 0.47749 2.6 12
5 13 0.00079 4.16409 2.56398 2.6 12
5 14 0.00285 3.77119 1.8723 2.6 12
6 6 0.09304 2.2718 0.24 2.6 12
6 7 0.09589 3.69815 1.28872 2.6 12
6 8 0.09424 3.30525 0.94106 2.6 12
6 9 0.00726 2.72788 0.48454 2.6 12
6 10 0.00624 2.73773 0.47749 2.6 12
6 11 0.00624 2.73773 0.47749 2.6 12
6 12 0.00348 2.2718 0.24 2.6 12
6 13 0.00063 3.69815 1.28872 2.6 12
6 14 0.00229 3.30525 0.94106 2.6 12
7 7 0.09874 5.1245 6.92 2.6 12
7 8 0.09708 4.7316 5.0532 2.6 12
7 9 0.00726 4.15423 2.60182 2.6 12
7 10 0.00624 4.16409 2.56398 2.6 12
7 11 0.00624 4.16409 2.56398 2.6 12
7 12 0.00348 3.69815 1.28872 2.6 12
7 13 0.00063 5.1245 6.92 2.6 12
7 14 0.00229 4.7316 5.0532 2.6 12
8 8 0.09543 4.3387 3.69 2.6 12
8 9 0.00726 3.76133 1.89993 2.6 12
8 10 0.00624 3.77119 1.8723 2.6 12
8 11 0.00624 3.77119 1.8723 2.6 12
8 12 0.00348 3.30525 0.94106 2.6 12
8 13 0.00063 4.7316 5.0532 2.6 12
8 14 0.00229 4.3387 3.69 2.6 12
9 9 0 3.18395 0.97825 2.6 12
9 10 0 3.19381 0.96402 2.6 12
9 11 0 3.19381 0.96402 2.6 12
9 12 0 2.72788 0.48454 2.6 12
9 13 0 4.15423 2.60182 2.6 12
9 14 0 3.76133 1.89993 2.6 12
10 10 0 3.20367 0.95 2.6 12
10 11 0 3.20367 0.95 2.6 12
10 12 0 2.73773 0.47749 2.6 12
10 13 0 4.16409 2.56398 2.6 12
10 14 0 3.77119 1.8723 2.6 12
11 11 0 3.20367 0.95 2.6 12
11 12 0 2.73773 0.47749 2.6 12
11 13 0 4.16409 2.56398 2.6 12
11 14 0 3.77119 1.8723 2.6 12
12 12 0 2.2718 0.24 2.6 12
12 13 0 3.69815 1.28872 2.6 12
12 14 0 3.30525 0.94106 2.6 12
13 13 0 5.1245 6.92 2.6 12
13 14 0 4.7316 5.0532 2.6 12
14 14 0 4.3387 3.69 2.6 12

Bond Coeffs # harmonic/omp

1 10000 0.9572
2 10000 0.24034
3 10000 1.278
4 500 0
5 500 0
6 500 0
7 500 0
8 500 0
9 500 0

Angle Coeffs # harmonic/omp

1 10000 104.52
2 10000 52.26
3 10000 116.8

Improper Coeffs # harmonic/omp

1 10000 0

Atoms # full

3592 401 9 -1.71637987 -8.93495256609169 -10.783374393881667 -19.336591603396673 0 0 0
1601 401 1 1.71637987 -8.912929915184213 -10.833613164049696 -19.387656432074223 0 0 0
1604 401 3 -1.11466 -8.880244414770903 -10.955369726564042 -19.584786995312122 0 0 0
1482 371 2 0.55733 -12.316234612828628 -9.36951476910404 -13.779179787251987 -2 -2 0
2801 701 1 1.71637987 -9.69665274513773 -8.354922972067644 17.75715121683322 0 0 0
1066 267 2 0.55733 -8.35184888480267 -12.16748097604942 -5.160851533095366 -2 2 0
1602 401 2 0.55733 -9.482447502082271 -11.504983384110194 -19.759849012533955 0 0 0
1603 401 2 0.55733 -8.17972979378223 -10.767258738011192 -19.997870822907498 0 0 0
1065 267 1 1.71637987 -9.199127566490777 -12.04181456864022 -5.5849332022799985 -2 2 0
974 244 2 0.55733 -10.257465502826085 -11.507598434877723 10.86717406564442 -2 0 0
696 174 3 -1.11466 -12.156695059057201 -11.258158591310933 -13.375905359102376 -1 -2 0
560 140 3 -1.11466 -12.337119112839302 -8.693963888215166 -5.4401053422279695 -1 0 0
46 12 2 0.55733 -6.725079855359071 -10.13794202179167 -9.24075860026846 -1 0 0
3404 267 9 -1.71637987 -9.204612342960667 -12.091010963499917 -5.597140316697867 -2 2 0
693 174 1 1.71637987 -12.065698244721537 -11.044131492055639 -13.389484033217183 -1 -2 0
3880 719 9 -1.71637987 -6.327912173051424 -10.329393500848917 -17.17582548955965 -1 3 0
976 244 3 -1.11466 -10.8457775616356 -11.87498572090184 10.404974136672461 -2 0 0
2925 732 1 1.71637987 -9.286406696553895 -8.813744559015788 0.9704340249330129 0 -1 0
3047 762 2 0.55733 -8.900463964157241 -10.35976134557289 -14.311232529882256 1 2 0
3130 174 9 -1.71637987 -12.022151818452564 -10.948022634520177 -13.381328743910695 -1 -2 0
3895 762 9 -1.71637987 -9.590312368040404 -10.904326755798891 -14.79403923251328 1 2 0
3045 762 1 1.71637987 -9.600942073446447 -10.870508348452837 -14.714368318073923 1 2 0
3048 762 3 -1.11466 -9.622623008484744 -10.6797975129876 -14.58072264644887 1 2 0
1901 476 1 1.71637987 -10.68437747639356 -8.614279083200486 -19.489452938695457 -1 -2 0
2843 711 2 0.55733 -6.4354947624447085 -9.903862743614413 -13.384534092247979 0 0 0
3785 783 12 -0.68760387 -9.066306633729367 -10.52813963365507 -16.838406276669843 0 0 0
3089 783 6 1.68760387 -9.071785360366272 -10.524379994993662 -16.829752654669015 0 0 0
1503 376 2 0.55733 -11.160244935935383 -10.124505005284442 -11.92583941526241 -2 0 0
1904 476 3 -1.11466 -10.456972681809495 -8.622247768641166 -19.5459979512942 -1 -2 0
3046 762 2 0.55733 -10.408115509385796 -10.432307918512185 -14.448144994349395 1 2 0
1177 295 1 1.71637987 -9.766025625098349 -8.366715102335503 -16.823136522860647 -3 -2 0
973 244 1 1.71637987 -10.83483702890095 -12.108840060665464 10.399344224534207 -2 0 0
2928 732 3 -1.11466 -9.443242195441508 -8.718510065951103 1.1177199684994659 0 -1 0
3884 732 9 -1.71637987 -9.257825534177945 -8.837787665164203 0.9117011067402317 0 -1 0
875 219 2 0.55733 -6.421808808721243 -11.608687034762381 -3.3952388491399144 -1 1 0
3869 711 9 -1.71637987 -7.343457979569349 -9.635608040272235 -13.718514950300564 0 0 0
2841 711 1 1.71637987 -7.28011953623052 -9.593101415392333 -13.711757776297208 0 0 0
2873 719 1 1.71637987 -6.289195898867865 -10.358358299449057 -17.116270513709626 -1 3 0
3434 295 9 -1.71637987 -9.721267482000474 -8.459785787548968 -16.817748424951848 -3 -2 0
2844 711 3 -1.11466 -7.073130094148129 -9.482327536988386 -13.71931072224762 0 0 0
12 3 3 -1.11466 -6.588850688985713 -8.80986524926776 -5.489367372151527 0 -2 0
694 174 2 0.55733 -11.870928779507464 -11.796257207146022 -13.94556009903425 -1 -2 0
10 3 2 0.55733 -7.1966275311052 -9.32047522460385 -5.74746428960459 0 -2 0
3843 701 9 -1.71637987 -9.637864133015482 -8.337694317870543 17.775232509896398 0 0 0
1067 267 2 0.55733 -9.114091203599461 -11.216397219433318 -6.0593092351033615 -2 2 0
3560 376 9 -1.71637987 -10.529088068847608 -9.908970983347372 -11.211805595247768 -2 0 0
1501 376 1 1.71637987 -10.561192585752808 -9.920466078165884 -11.209799706537899 -2 0 0
1504 376 3 -1.11466 -10.791348310414858 -9.967375110771078 -11.19543482893976 -2 0 0
2413 604 1 1.71637987 -9.855956305901834 -8.801218439733075 -4.655988841198177 -1 -1 0
2507 627 2 0.55733 -12.304148016211256 -10.306534080589804 -7.724392898600461 0 -3 0
3780 627 9 -1.71637987 -11.972263612635425 -10.173047602000226 -8.659294161349044 0 -3 0
1502 376 2 0.55733 -11.101932853814022 -9.948177638997477 -10.421903986797787 -2 0 0
1522 381 2 0.55733 -8.404561212700132 -9.610343668122304 -7.735327958556966 -2 1 0
2414 604 2 0.55733 -9.82511785468399 -9.48355553122984 -3.985829226160473 -1 -1 0
1521 381 1 1.71637987 -9.032418896309222 -9.576502714846203 -7.015380977781458 -2 1 0
1523 381 2 0.55733 -9.843160912415648 -9.25891996674008 -7.411742041176298 -2 1 0
2416 604 3 -1.11466 -9.776842513582045 -9.021162905910849 -4.678411500552798 -1 -1 0
2415 604 2 0.55733 -9.49450238601952 -9.211341405188824 -5.439839322140053 -1 -1 0
3342 381 9 -1.71637987 -9.050472278700521 -9.598817431242823 -6.888964941601602 -2 1 0
1524 381 3 -1.11466 -9.069777620362519 -9.52058016389157 -7.240305327544563 -2 1 0
2505 627 1 1.71637987 -12.034118456578996 -10.213831084941356 -8.636406540160577 0 -3 0
3447 319 9 -1.71637987 -10.225099038395054 -10.650139611563157 -2.6739342193769438 0 -1 0
1273 319 1 1.71637987 -10.233652398973938 -10.732054493302694 -2.659201564861188 0 -1 0
2508 627 3 -1.11466 -12.250752547727183 -10.20309828982728 -8.550963438715941 0 -3 0
1068 267 3 -1.11466 -9.010058643832165 -11.899392071901472 -5.594834621976922 -2 2 0
2791 698 2 0.55733 -7.554281314765961 -9.036213287279416 3.6446549457624005 4 0 0
3730 604 9 -1.71637987 -9.90136614167447 -8.733199123542596 -4.683593241179054 -1 -1 0
284 71 3 -1.11466 -6.744197163794405 -11.488368233660765 16.05889404814762 -1 0 0
9 3 1 1.71637987 -6.604171102221857 -8.743900188407505 -5.26365295960095 0 -2 0
281 71 1 1.71637987 -6.729047591255452 -11.253658498214557 16.07376693225669 -1 0 0
536 134 3 -1.11466 -7.718676707999618 -8.755963172695958 14.980544205866508 0 2 0
559 140 2 0.55733 -11.52193665803927 -8.610851546520472 -5.595008541301245 -1 0 0
3116 12 9 -1.71637987 -7.186395724115433 -9.332056550478566 -8.883062607077166 -1 0 0
533 134 1 1.71637987 -7.7609660197300565 -8.770567823547967 14.750241905565007 0 2 0
1274 319 2 0.55733 -10.965749776312917 -11.243396310108496 -2.996599308989337 0 -1 0
1276 319 3 -1.11466 -10.260991730979407 -10.962717579256998 -2.6474381187486484 0 -1 0
1275 319 2 0.55733 -9.64408382342573 -11.374554740808804 -2.265433702102578 0 -1 0
2804 701 3 -1.11466 -9.911291225964396 -8.445398905238733 17.753618407792224 0 0 0
3341 219 9 -1.71637987 -7.0427573213213215 -12.37793451896026 -3.5611448044165814 -1 1 0
3430 148 9 -1.71637987 -11.282404525854732 -10.332996156956993 2.369649945097472 -2 0 0
589 148 1 1.71637987 -11.26341643435629 -10.361932958556334 2.408424761475698 -2 0 0
2719 680 2 0.55733 -10.467122508091041 -9.02018400557358 -1.9377245003122017 0 -1 0
2927 732 2 0.55733 -10.148924321775493 -9.154180317106535 1.2031969777577807 0 -1 0
3178 71 9 -1.71637987 -6.710483573283808 -11.157941111225096 16.094887169435836 -1 0 0
590 148 2 0.55733 -11.219566611502925 -11.316777664218337 2.3581679762055763 -2 0 0
3760 634 9 -1.71637987 -7.209490109790819 -10.112739735410221 -0.549225402193007 4 0 0
2536 634 3 -1.11466 -7.309474557631842 -10.286106939535111 -0.29540811595491395 4 0 0
2533 634 1 1.71637987 -7.2499364197736105 -10.171812529265576 -0.4914574914623193 4 0 0
2535 634 2 0.55733 -8.078856771343293 -10.12007744625427 -0.01732500096965056 4 0 0
3001 751 1 1.71637987 -7.813840480215085 -12.0313431988377 12.815966561061288 1 0 0
592 148 3 -1.11466 -11.221755902658355 -10.512496975038408 2.5820919527859196 -2 0 0
591 148 2 0.55733 -11.101180681517787 -10.15699683498228 3.327324079861384 -2 0 0
1160 290 3 -1.11466 -10.6611518376452 -11.109253708984934 16.8908288593735 2 4 0
2534 634 2 0.55733 -6.721382916194402 -10.794928562066865 0.0063744855827094216 4 0 0
873 219 1 1.71637987 -6.97971720266536 -12.365819988866495 -3.568157172428682 -1 1 0
45 12 1 1.71637987 -7.156846936603817 -9.3335100486646 -8.953575393342883 -1 0 0
1902 476 2 0.55733 -10.129130349105141 -9.391445727351043 -19.550699037523135 -1 -2 0
3004 751 3 -1.11466 -7.778824014807635 -11.801835413826977 12.793102465183761 1 0 0
2343 586 2 0.55733 -10.923892066263782 -9.755046619501087 15.51812321121485 -1 0 0
3231 134 9 -1.71637987 -7.779694634909479 -8.788301048353448 14.67790618468774 0 2 0
486 122 2 0.55733 -6.930457923191975 -9.520267100027485 10.310496231895772 0 2 0
1263 316 2 0.55733 -8.642692899410507 -10.17458738712657 4.4656858682391976 0 -3 0
876 219 3 -1.11466 -6.75609745420475 -12.365476290388678 -3.495182691623212 -1 1 0
47 12 2 0.55733 -7.056407423050554 -8.727932769424086 -9.687157936373243 -1 0 0
1157 290 1 1.71637987 -10.59595646362848 -10.8937033468227 16.95964851360935 2 4 0
1159 290 2 0.55733 -10.044792882030844 -11.66898837085488 16.87760283536508 2 4 0
485 122 1 1.71637987 -6.613112319663498 -10.196934375491445 9.716981155486371 0 2 0
488 122 3 -1.11466 -6.533202106149462 -10.147644397353101 9.93121261324116 0 2 0
1261 316 1 1.71637987 -7.987142489367239 -10.845374704592297 4.277802937042413 0 -3 0
3353 244 9 -1.71637987 -10.83773146521292 -12.174415454833422 10.3986971504752 -2 0 0
1262 316 2 0.55733 -8.4330491504484 -11.476023495953037 3.7177358700039838 0 -3 0
3230 122 9 -1.71637987 -6.632974168878943 -10.214519699574556 9.651543913039381 0 2 0
975 244 2 0.55733 -11.469201429420554 -11.547326694392199 9.958855729911544 -2 0 0
287 72 2 0.55733 -7.954523136044091 -11.060799318170297 8.453699768834198 1 -1 0
286 72 2 0.55733 -8.400149183268404 -11.881476225400348 7.260563828064734 1 -1 0
288 72 3 -1.11466 -8.456800639581255 -11.267536295980394 7.820622690850379 1 -1 0
3204 72 9 -1.71637987 -8.69883097570838 -11.090883413593128 7.799141220650162 1 -1 0
285 72 1 1.71637987 -8.646214597184027 -11.128233521358343 7.794944734493609 1 -1 0
333 84 1 1.71637987 -10.264397777274569 -9.005610788490467 8.900378042927976 -3 -1 0
3748 799 14 -3.45723606 -11.225106823974059 -9.08558255974835 5.233927376948981 0 0 0
3105 799 8 2.45723606 -11.127813454361915 -9.102825666474578 5.2951437845039875 0 0 0
3165 84 9 -1.71637987 -10.215803367973546 -8.943240229024315 8.944756606957592 -3 -1 0
336 84 3 -1.11466 -10.336842447975132 -9.220205207797143 8.843330574377777 -3 -1 0
335 84 2 0.55733 -9.748270165145467 -9.71238375892908 8.511948590592244 -3 -1 0
334 84 2 0.55733 -11.141756863720664 -9.373560949560343 9.005866133807308 -3 -1 0
3448 316 9 -1.71637987 -7.938707026402534 -10.804432926930009 4.2848545091839965 0 -3 0
1264 316 3 -1.11466 -8.208921155254552 -10.836760887434147 4.203138428548944 0 -3 0
3432 290 9 -1.71637987 -10.58402544278638 -10.804909659577918 16.941847117862103 2 4 0
2341 586 1 1.71637987 -11.183889770927028 -9.068374631593766 14.907095906356028 -1 0 0
48 12 3 -1.11466 -7.050574288900918 -9.373750667453722 -9.159974194259812 -1 0 0
3805 651 9 -1.71637987 -9.635432304156366 -9.690295238699134 12.403785477896934 -3 3 0
2842 711 2 0.55733 -7.097664674921482 -8.727351784794676 -14.073702724453911 0 0 0
1158 290 2 0.55733 -11.468220088093032 -11.183018306618777 16.698048421550435 2 4 0
2604 651 3 -1.11466 -9.417791855954544 -9.520831061006813 12.407024720954245 -3 3 0
2803 701 2 0.55733 -9.939115313679862 -9.268866639936249 17.623085981227035 0 0 0
3906 751 9 -1.71637987 -7.826012103896281 -12.108977102871679 12.830456239238154 1 0 0
2342 586 2 0.55733 -10.994661135904545 -9.425231990584855 14.04031289905166 -1 0 0
2603 651 2 0.55733 -9.208767339285531 -9.276355599558965 13.17699011166629 -3 3 0
3120 3 9 -1.71637987 -6.59368219925046 -8.770224984066747 -5.206076080708243 0 -2 0
3718 586 9 -1.71637987 -11.219098025604824 -8.999342343315165 14.906720653072314 -1 0 0
282 71 2 0.55733 -7.475209046207086 -11.804776076288 16.30602012061947 -1 0 0
2602 651 2 0.55733 -9.029974413727286 -9.405663469518972 11.677395403068767 -3 3 0
535 134 2 0.55733 -7.548974186009506 -9.482337831089575 15.352354480636164 0 2 0
2601 651 1 1.71637987 -9.617743198976994 -9.641099150510046 12.392386673189776 -3 3 0
2344 586 3 -1.11466 -11.094227922640222 -9.276733269083909 14.856045957554361 -1 0 0
2867 717 2 0.55733 -10.397673290152433 -12.242405767559921 -11.180720617895108 1 0 0
3002 751 2 0.55733 -8.474615024446933 -11.35530990721352 12.680564514843475 1 0 0
3003 751 2 0.55733 -6.980417905124338 -11.561490986053974 12.832456434473059 1 0 0
3483 332 9 -1.71637987 -6.239969492031015 -11.55240898023525 -20.861466202061568 1 0 0
1582 396 2 0.55733 -6.757090224232794 -8.48789354417201 -0.6287365023552156 -1 -1 0
2486 622 2 0.55733 -7.852247123020749 -8.347732442450033 6.758557508369321 0 0 0
3619 476 9 -1.71637987 -10.75219056894306 -8.606557403906383 -19.440561847640044 -1 -2 0
2720 680 3 -1.11466 -10.409252925874895 -8.334812076235295 -1.4657081442210678 0 -1 0
699 175 2 0.55733 -7.219687828020974 -8.518001255729166 12.753307881992892 2 0 0
2423 606 2 0.55733 -11.687417043647995 -8.373477813964904 -8.161073085078334 0 0 0
2487 622 2 0.55733 -6.3435521495726865 -8.482701845930745 6.7031290306625815 0 0 0
2615 654 2 0.55733 -11.770172034880686 -12.378861087068902 -20.031822820657457 0 2 0
3126 24 9 -1.71637987 -9.124218609847363 -6.550875668552107 -19.788770901108634 -1 1 0
93 24 1 1.71637987 -9.095744701068831 -6.491434560575562 -19.797248382224627 -1 1 0
96 24 3 -1.11466 -9.122129347945291 -6.263412634015857 -19.839047094463986 -1 1 0
94 24 2 0.55733 -9.858716647090468 -5.950329506821771 -19.603702951358056 -1 1 0
95 24 2 0.55733 -8.467084156204576 -5.894949757713624 -20.20286634279947 -1 1 0
2593 649 1 1.71637987 -11.965580611915106 -4.668209852378706 16.750365953823607 0 2 0
1903 476 2 0.55733 -10.10402825760112 -7.882594358251033 -19.70485159751653 -1 -2 0
1446 362 2 0.55733 -11.337741632159508 -5.860339866232906 -15.066134947052246 1 1 0
3472 362 9 -1.71637987 -11.56458641566412 -6.538584129671155 -15.759158565639256 1 1 0
1454 364 2 0.55733 -11.970918976222247 -4.531687628440447 -7.364128262398754 1 0 0
2717 680 1 1.71637987 -10.542430508535443 -8.153001063368972 -1.538745101103242 0 -1 0
3693 552 9 -1.71637987 -6.836507682766974 -7.330609197546021 -14.969897846879162 -2 -1 0
2422 606 2 0.55733 -12.021072103096529 -6.9474198566156735 -7.773156364440773 0 0 0
2883 721 2 0.55733 -7.7495525755241 -5.724935415539648 -16.52515422907569 2 2 0
2882 721 2 0.55733 -7.511138670639969 -5.256286176087282 -17.945975883166838 2 2 0
2884 721 3 -1.11466 -7.748154388524963 -5.175070340799439 -17.151530618490487 2 2 0
3855 721 9 -1.71637987 -7.852385900396584 -4.880465835413906 -17.076837841390326 2 2 0
2881 721 1 1.71637987 -7.826751233171689 -4.960968548536818 -17.094242378570232 2 2 0
2824 706 3 -1.11466 -9.493645107670574 -5.823398415661258 -13.168253967219266 1 -1 0
2823 706 2 0.55733 -9.120737889164193 -6.403908445933171 -12.70038896758973 1 -1 0
2821 706 1 1.71637987 -9.36374363363632 -5.74248298197353 -13.344313889099865 1 -1 0
3837 706 9 -1.71637987 -9.343535525248978 -5.708358826756452 -13.361717934304671 1 -1 0
2822 706 2 0.55733 -10.252785930453879 -5.482367472246718 -13.107419678276738 1 -1 0
2208 552 3 -1.11466 -6.578086920738356 -7.237919051570637 -15.024930291256812 -2 -1 0
2205 552 1 1.71637987 -6.801603894919705 -7.297028513992014 -14.989540273312183 -2 -1 0
2207 552 2 0.55733 -6.232605778913953 -6.798401511625958 -14.405454148717139 -2 -1 0
1180 295 3 -1.11466 -9.960087154963746 -8.234753707588345 -16.847519896357028 -3 -2 0
611 153 2 0.55733 -10.050233625674553 -6.752390892239131 -10.896402729934128 0 -2 0
927 232 2 0.55733 -11.637511656293691 -5.5859636005829145 -17.69130289913105 0 1 0
609 153 1 1.71637987 -9.266029219945192 -7.298658329996061 -10.93948867790366 0 -2 0
534 134 2 0.55733 -7.768360079036345 -7.984446673214903 15.29253211695441 0 2 0
2596 649 3 -1.11466 -11.914962363874752 -4.6608885519716825 16.522832359687957 0 2 0
612 153 3 -1.11466 -9.488575379930232 -7.366088823851741 -10.960846228953171 0 -2 0
3288 153 9 -1.71637987 -9.17762166647635 -7.277699371178469 -10.931118807077056 0 -2 0
3539 396 9 -1.71637987 -6.540605633133433 -7.5494996414823 -0.8612297903614682 -1 -1 0
3792 649 9 -1.71637987 -11.953194827772627 -4.6801338368791 16.806242412119605 0 2 0
1762 441 2 0.55733 -7.345706487867491 -7.188656681408872 -10.904375760055695 -2 -2 0
1764 441 3 -1.11466 -6.5198170110923845 -7.104694987644898 -10.827276336133052 -2 -2 0
3566 441 9 -1.71637987 -6.375626730127435 -7.374260551255215 -10.772763710329297 -2 -2 0
823 206 2 0.55733 -12.381180162818243 -5.536840309345432 -10.763426629335367 1 0 0
3825 680 9 -1.71637987 -10.574648913264785 -8.13004630070773 -1.5280024008940667 0 -1 0
1178 295 2 0.55733 -10.231988639687682 -7.884789167289401 -16.140252176656077 -3 -2 0
2220 555 3 -1.11466 -12.192186918797212 -7.3731342054797215 0.63284965820649 1 1 0
607 152 2 0.55733 -7.491806214952186 -7.403163937395412 19.94430706754566 0 -1 0
2789 698 1 1.71637987 -7.500362547255519 -8.088383126700407 3.747215044539632 4 0 0
1784 446 3 -1.11466 -12.319023254301168 -4.23603071185234 -13.886695931462302 0 0 0
824 206 3 -1.11466 -11.751410793324148 -5.974286217410826 -10.432712523362113 1 0 0
821 206 1 1.71637987 -11.544270936702638 -5.934078046338833 -10.530336288443696 1 0 0
3323 206 9 -1.71637987 -11.4717430526012 -5.952242276506747 -10.55886094862819 1 0 0
822 206 2 0.55733 -11.746723794631828 -6.528678708153376 -9.807900406642062 1 0 0
1887 472 2 0.55733 -8.785316869800765 -6.642472004901971 -9.033968552991443 0 1 0
3611 472 9 -1.71637987 -8.677622904184622 -5.8418361363247255 -8.463002615544703 0 1 0
1885 472 1 1.71637987 -8.669448971889498 -5.8998312772958625 -8.44160558730756 0 1 0
1888 472 3 -1.11466 -8.757246548098998 -6.11180138550973 -8.390865019116173 0 1 0
925 232 1 1.71637987 -11.491128213899254 -4.904121984993489 -18.34500882140599 0 1 0
1761 441 1 1.71637987 -6.4006235954229815 -7.308286666148701 -10.803445373552295 -2 -2 0
1820 455 3 -1.11466 -10.24298764258601 -6.30149302224396 -5.494290298322437 3 2 0
1817 455 1 1.71637987 -10.078977233241346 -6.147897202348084 -5.429549863685678 3 2 0
3590 455 9 -1.71637987 -10.056756709158542 -6.124414273476921 -5.4399869846592 3 2 0
1818 455 2 0.55733 -10.10793591211986 -7.083935563454782 -5.23628943444801 3 2 0
1886 472 2 0.55733 -8.991395534651817 -6.209093025462452 -7.595814889216219 0 1 0
1447 362 2 0.55733 -12.049450235350388 -7.192889204292234 -15.18148139046877 1 1 0
928 232 3 -1.11466 -11.413355221588818 -4.908518513703952 -18.12505770728438 0 1 0
1819 455 2 0.55733 -10.865191929758792 -5.979110241267646 -5.945749505201444 3 2 0
3271 168 9 -1.71637987 -11.356794486766502 -4.1532963342194416 -3.8072915292347016 -1 2 0
2217 555 1 1.71637987 -12.377069908433503 -7.235526970658629 0.5930341199546547 1 1 0
1001 251 1 1.71637987 -12.340537744716661 -6.782361115618237 9.979663467357872 1 1 0
3796 698 9 -1.71637987 -7.493079788255026 -8.058912764506145 3.6871811093188973 4 0 0
2790 698 2 0.55733 -7.2347534473754544 -7.952795897765975 4.655391239813165 4 0 0
437 110 1 1.71637987 -7.6616278321458156 -4.156731543058914 20.437792142224016 -2 -2 0
3737 606 9 -1.71637987 -11.340729401972744 -7.473838466586861 -8.252456751305127 0 0 0
2421 606 1 1.71637987 -11.364428635056568 -7.476197279703619 -8.2208452206246 0 0 0
831 208 2 0.55733 -7.976137884971862 -4.42530979811372 -9.947103619014356 -2 -3 0
2424 606 3 -1.11466 -11.561913760188045 -7.551311352852615 -8.118705809110262 0 0 0
610 153 2 0.55733 -9.59010919685644 -8.183820855155371 -11.08770061900141 0 -2 0
2070 518 2 0.55733 -11.701599425285561 -5.800377957106517 -0.3510284900478285 1 -2 0
1581 396 1 1.71637987 -6.476370040120483 -7.607540976211629 -0.8705994779056824 -1 -1 0
2218 555 2 0.55733 -11.877051768354228 -7.314092009115443 1.4027969663561917 1 1 0
2792 698 3 -1.11466 -7.458230807055887 -8.251672401141374 3.909262396284146 4 0 0
499 125 2 0.55733 -8.412259550554003 -7.0310342470604175 -3.2701110879149535 2 -1 0
732 183 3 -1.11466 -12.366978558523337 -7.357312827131875 17.279393359795108 1 3 0
3376 251 9 -1.71637987 -12.385701381850396 -6.794426385920583 10.032497775099586 1 1 0
482 121 2 0.55733 -10.77189085609592 -7.421419555601288 3.57858578069491 -3 0 0
498 125 2 0.55733 -7.474659299734096 -6.703654460450586 -2.1259477558552224 2 -1 0
500 125 3 -1.11466 -7.944531305140918 -6.533100369979587 -2.7933303919905024 2 -1 0
3265 125 9 -1.71637987 -7.879778814979693 -6.2548326199162565 -2.877176257385257 2 -1 0
3847 695 9 -1.71637987 -7.650312795646185 -6.547074646056593 1.3642977947422799 1 1 0
481 121 1 1.71637987 -10.933074966877705 -6.813385933652819 2.856711016411103 -3 0 0
3253 121 9 -1.71637987 -10.920794379198657 -6.81869548518442 2.7974425595026107 -3 0 0
484 121 3 -1.11466 -11.082780254845506 -6.87853618011592 3.0262841369864373 -3 0 0
2071 518 2 0.55733 -11.330350474948931 -5.080442140997673 -1.6314130536883429 1 -2 0
497 125 1 1.71637987 -7.944762485105229 -6.306398515762242 -2.8599559058955477 2 -1 0
2069 518 1 1.71637987 -11.302498411721567 -4.995141753641369 -0.6794458656067979 1 -2 0
2072 518 3 -1.11466 -11.387923044354153 -5.176836583398136 -0.8053218718795758 1 -2 0
3655 518 9 -1.71637987 -11.31092734719645 -4.922830243923897 -0.6291320897717293 1 -2 0
2780 695 3 -1.11466 -7.509743356282929 -6.81123092037099 1.3423001877687641 1 1 0
2777 695 1 1.71637987 -7.633555992352666 -6.614035370920324 1.3516244549859 1 1 0
2778 695 2 0.55733 -7.23514539336479 -7.020853103998518 0.5821107801933978 1 1 0
2779 695 2 0.55733 -7.410726331879307 -7.189871265308847 2.078154527782097 1 1 0
3275 322 9 -1.71637987 -8.502084344112443 -4.879431255946478 3.910447811158915 1 0 0
1584 396 3 -1.11466 -6.341002760954604 -7.796117036352844 -0.8351662649752997 -1 -1 0
1285 322 1 1.71637987 -8.541182914577979 -4.911925839688733 3.862080583249299 1 0 0
1286 322 2 0.55733 -8.692537106987437 -5.690734096293352 3.3248579360550323 1 0 0
2926 732 2 0.55733 -9.199405719215372 -8.003435555489343 1.4709601911797907 0 -1 0
1288 322 3 -1.11466 -8.738979358975074 -4.97285148796882 3.7476367752890756 1 0 0
2095 524 2 0.55733 -6.340402336321056 -5.227304750509143 1.7875352873304613 0 -1 0
698 175 2 0.55733 -6.265857215588772 -7.755431773229006 11.856239333133468 2 0 0
1287 322 2 0.55733 -9.371027725009192 -4.434883615390735 3.836423083298504 1 0 0
700 175 3 -1.11466 -6.967294023457945 -8.165739096587233 12.040786334372473 2 0 0
1004 251 3 -1.11466 -12.152458604752836 -6.781392689633388 9.838715192169888 1 1 0
730 183 2 0.55733 -12.413954397945492 -6.585805735243533 17.59528854479227 1 3 0
2235 559 2 0.55733 -8.523849342203572 -5.891598823274753 6.861111241085282 1 1 0
2233 559 1 1.71637987 -9.252686159898108 -5.477294845035609 6.402284726885788 1 1 0
3690 559 9 -1.71637987 -9.29395193887852 -5.453856517119762 6.444569142583421 1 1 0
2234 559 2 0.55733 -8.909012660840423 -5.259772128054479 5.538069531952356 1 1 0
2236 559 3 -1.11466 -9.037637916475271 -5.516306343787747 6.321137308015012 1 1 0
1002 251 2 0.55733 -11.420119570166019 -6.7646436301895685 10.236810370338832 1 1 0
3217 708 9 -1.71637987 -12.100320041348093 -6.863093675790875 7.251638873327175 1 0 0
2829 708 1 1.71637987 -12.035394482719042 -6.895125161346737 7.200138963855406 1 0 0
2831 708 2 0.55733 -11.925020912154242 -7.623048355072887 6.589310918010488 1 0 0
2611 653 2 0.55733 -8.585810549683943 -7.228576428955225 11.02593473668439 0 0 0
2609 653 1 1.71637987 -9.30425718096302 -6.97634736175444 10.447139937322074 0 0 0
3656 653 9 -1.71637987 -9.343352241805192 -6.9053400069060595 10.475822763999002 0 0 0
2612 653 3 -1.11466 -9.1944331720131 -7.182415667201967 10.45582466034984 0 0 0
2832 708 3 -1.11466 -11.846112231343703 -6.94837695512228 7.074969921485757 1 0 0
2830 708 2 0.55733 -11.198579492310788 -6.432305016854547 7.186048918028849 1 0 0
2610 653 2 0.55733 -9.47065374959108 -7.7524922452746 9.911185382964725 0 0 0
697 175 1 1.71637987 -7.119367205617009 -8.186654358560832 11.863191620321604 2 0 0
3311 175 9 -1.71637987 -7.19002164426437 -8.204239058070172 11.803628486661532 2 0 0
3580 446 9 -1.71637987 -12.069453388073041 -4.387767371228673 -13.955152422302147 0 0 0
605 152 1 1.71637987 -7.255074118983176 -7.907373048847305 19.167595118299364 0 -1 0
731 183 2 0.55733 -12.005358098533707 -7.636397826385957 16.580824130524842 1 3 0
259 65 2 0.55733 -7.545828860428159 -5.508957689714267 16.14897140721286 0 3 0
926 232 2 0.55733 -10.959003141487905 -4.24592797078079 -17.90004014626289 0 1 0
1448 362 3 -1.11466 -11.636361883890928 -6.527031142758003 -15.467495928054719 1 1 0
1102 276 2 0.55733 -12.384753651007683 -5.528272605150573 -3.8600560956115095 2 -1 0
1445 362 1 1.71637987 -11.599695510005839 -6.527365741774596 -15.697274551608274 1 1 0
2488 622 3 -1.11466 -7.0750942334293 -8.10026131775015 6.582671333575598 0 0 0
2802 701 2 0.55733 -10.527781365306424 -7.894610595225927 17.87499868182172 0 0 0
127 32 2 0.55733 -10.454834161980859 -7.412028500818676 15.072944364137228 0 0 0
3810 32 9 -1.71637987 -10.268054848773339 -6.437243220067094 15.143114075142618 0 0 0
66 17 2 0.55733 -7.3380203330160185 -4.344219453680979 -2.649883035622734 0 -1 0
2679 670 2 0.55733 -9.680318593284694 -5.649909001903219 11.562483105656028 1 0 0
258 65 2 0.55733 -7.3809645440274 -6.631992203766817 17.153112548024566 0 3 0
1774 444 2 0.55733 -8.177481585476437 -4.815622160862771 0.5964257758358208 2 1 0
530 133 2 0.55733 -11.79489995702085 -4.5330411110640325 12.289994398337578 0 0 0
483 121 2 0.55733 -11.837491801940473 -6.52571522615415 2.977917996428901 -3 0 0
2485 622 1 1.71637987 -7.059257944839193 -7.889178433115608 6.482791084211129 0 0 0
1781 446 1 1.71637987 -12.11640070940411 -4.341344892537744 -13.943331313378609 0 0 0
3194 65 9 -1.71637987 -7.807799890191584 -6.483915485788659 16.258325641140146 0 3 0
2677 670 1 1.71637987 -10.062002286637679 -5.162860338788611 12.291311534781796 1 0 0
257 65 1 1.71637987 -7.759399849279368 -6.429514311346174 16.2985744008411 0 3 0
3817 670 9 -1.71637987 -10.082129141045128 -5.089634735513207 12.271404535351506 1 0 0