LAMMPS data file via write_data, version 29 Sep 2021, timestep = 6000000

3910 atoms
14 atom types
3109 bonds
9 bond types
2305 angles
3 angle types
768 impropers
1 improper types

-12.418372 12.418372 xlo xhi
-12.418372 12.418372 ylo yhi
-55.882675 55.882675 zlo zhi

Masses

1 15.2
2 1
3 0.001
4 15.2
5 15.2
6 22.2
7 126.2
8 34.2
9 0.8
10 0.8
11 0.8
12 0.8
13 0.8
14 0.8

PairIJ Coeffs # lj/cut/thole/long/omp

1 1 0.18985 3.18395 0.97825 2.6 12
1 2 0 1.59197 0 2.6 12
1 3 0 1.59197 0 2.6 12
1 4 0.16326 3.19381 0.96402 2.6 12
1 5 0.16326 3.19381 0.96402 2.6 12
1 6 0.13292 2.72788 0.48454 2.6 12
1 7 0.13706 4.15423 2.60182 2.6 12
1 8 0.13466 3.76133 1.89993 2.6 12
1 9 0.01055 3.18395 0.97825 2.6 12
1 10 0.00907 3.19381 0.96402 2.6 12
1 11 0.00907 3.19381 0.96402 2.6 12
1 12 0.00505 2.72788 0.48454 2.6 12
1 13 0.00091 4.15423 2.60182 2.6 12
1 14 0.00332 3.76133 1.89993 2.6 12
2 2 0 0 0 2.6 12
2 3 0 0 0 2.6 12
2 4 0 1.60183 0 2.6 12
2 5 0 1.60183 0 2.6 12
2 6 0 1.1359 0 2.6 12
2 7 0 2.56225 0 2.6 12
2 8 0 2.16935 0 2.6 12
2 9 0 1.59197 0 2.6 12
2 10 0 1.60183 0 2.6 12
2 11 0 1.60183 0 2.6 12
2 12 0 1.1359 0 2.6 12
2 13 0 2.56225 0 2.6 12
2 14 0 2.16935 0 2.6 12
3 3 0 0 0 2.6 12
3 4 0 1.60183 0 2.6 12
3 5 0 1.60183 0 2.6 12
3 6 0 1.1359 0 2.6 12
3 7 0 2.56225 0 2.6 12
3 8 0 2.16935 0 2.6 12
3 9 0 1.59197 0 2.6 12
3 10 0 1.60183 0 2.6 12
3 11 0 1.60183 0 2.6 12
3 12 0 1.1359 0 2.6 12
3 13 0 2.56225 0 2.6 12
3 14 0 2.16935 0 2.6 12
4 4 0.1404 3.20367 0.95 2.6 12
4 5 0.1404 3.20367 0.95 2.6 12
4 6 0.11431 2.73773 0.47749 2.6 12
4 7 0.11787 4.16409 2.56398 2.6 12
4 8 0.1158 3.77119 1.8723 2.6 12
4 9 0.00907 3.19381 0.96402 2.6 12
4 10 0.0078 3.20367 0.95 2.6 12
4 11 0.0078 3.20367 0.95 2.6 12
4 12 0.00434 2.73773 0.47749 2.6 12
4 13 0.00079 4.16409 2.56398 2.6 12
4 14 0.00285 3.77119 1.8723 2.6 12
5 5 0.1404 3.20367 0.95 2.6 12
5 6 0.11431 2.73773 0.47749 2.6 12
5 7 0.11787 4.16409 2.56398 2.6 12
5 8 0.1158 3.77119 1.8723 2.6 12
5 9 0.00907 3.19381 0.96402 2.6 12
5 10 0.0078 3.20367 0.95 2.6 12
5 11 0.0078 3.20367 0.95 2.6 12
5 12 0.00434 2.73773 0.47749 2.6 12
5 13 0.00079 4.16409 2.56398 2.6 12
5 14 0.00285 3.77119 1.8723 2.6 12
6 6 0.09304 2.2718 0.24 2.6 12
6 7 0.09589 3.69815 1.28872 2.6 12
6 8 0.09424 3.30525 0.94106 2.6 12
6 9 0.00726 2.72788 0.48454 2.6 12
6 10 0.00624 2.73773 0.47749 2.6 12
6 11 0.00624 2.73773 0.47749 2.6 12
6 12 0.00348 2.2718 0.24 2.6 12
6 13 0.00063 3.69815 1.28872 2.6 12
6 14 0.00229 3.30525 0.94106 2.6 12
7 7 0.09874 5.1245 6.92 2.6 12
7 8 0.09708 4.7316 5.0532 2.6 12
7 9 0.00726 4.15423 2.60182 2.6 12
7 10 0.00624 4.16409 2.56398 2.6 12
7 11 0.00624 4.16409 2.56398 2.6 12
7 12 0.00348 3.69815 1.28872 2.6 12
7 13 0.00063 5.1245 6.92 2.6 12
7 14 0.00229 4.7316 5.0532 2.6 12
8 8 0.09543 4.3387 3.69 2.6 12
8 9 0.00726 3.76133 1.89993 2.6 12
8 10 0.00624 3.77119 1.8723 2.6 12
8 11 0.00624 3.77119 1.8723 2.6 12
8 12 0.00348 3.30525 0.94106 2.6 12
8 13 0.00063 4.7316 5.0532 2.6 12
8 14 0.00229 4.3387 3.69 2.6 12
9 9 0 3.18395 0.97825 2.6 12
9 10 0 3.19381 0.96402 2.6 12
9 11 0 3.19381 0.96402 2.6 12
9 12 0 2.72788 0.48454 2.6 12
9 13 0 4.15423 2.60182 2.6 12
9 14 0 3.76133 1.89993 2.6 12
10 10 0 3.20367 0.95 2.6 12
10 11 0 3.20367 0.95 2.6 12
10 12 0 2.73773 0.47749 2.6 12
10 13 0 4.16409 2.56398 2.6 12
10 14 0 3.77119 1.8723 2.6 12
11 11 0 3.20367 0.95 2.6 12
11 12 0 2.73773 0.47749 2.6 12
11 13 0 4.16409 2.56398 2.6 12
11 14 0 3.77119 1.8723 2.6 12
12 12 0 2.2718 0.24 2.6 12
12 13 0 3.69815 1.28872 2.6 12
12 14 0 3.30525 0.94106 2.6 12
13 13 0 5.1245 6.92 2.6 12
13 14 0 4.7316 5.0532 2.6 12
14 14 0 4.3387 3.69 2.6 12

Bond Coeffs # harmonic/omp

1 10000 0.9572
2 10000 0.24034
3 10000 1.278
4 500 0
5 500 0
6 500 0
7 500 0
8 500 0
9 500 0

Angle Coeffs # harmonic/omp

1 10000 104.52
2 10000 52.26
3 10000 116.8

Improper Coeffs # harmonic/omp

1 10000 0

Atoms # full

3073 769 4 1.88141543 -8.546319312049993 -9.749927866312557 -32.48653451427759 -3 -2 0
3295 769 10 -1.69141543 -8.547744383841696 -9.753434589488856 -32.49044193237796 -3 -2 0
3296 769 11 -1.69141543 -9.038097486521629 -8.629791042849726 -32.10754180550656 -3 -2 0
3074 769 5 1.59641543 -9.04235226668251 -8.633879489436234 -32.11014004505213 -3 -2 0
3341 769 11 -1.69141543 -7.823907908440836 -10.37488585678216 -31.637859787458314 -3 -2 0
3075 769 5 1.59641543 -7.8269530093881965 -10.376944527295949 -31.63613491976552 -3 -2 0
1571 393 2 0.55733 -8.364175127465447 -10.897762399309448 -17.040239631843765 0 2 0
483 121 2 0.55733 -12.376644508329084 -10.802744288555749 -18.24366335497027 -2 -1 0
2304 576 3 -1.11466 -6.885030979230993 -11.31038671681016 11.101891875883505 0 0 0
1441 361 1 1.71637987 -12.319749749722684 -11.726357786527155 -7.951478413076763 1 -1 0
1642 411 2 0.55733 -10.654218439109973 -12.21305728819039 -8.506588375828093 -1 -1 0
2123 531 2 0.55733 -8.401593965600572 -8.646265285728022 -17.498166901365995 1 0 0
2122 531 2 0.55733 -6.893305055323231 -8.732850496643332 -17.381106878102795 1 0 0
2124 531 3 -1.11466 -7.681282183120789 -8.907487596480797 -17.171456470539194 1 0 0
2303 576 2 0.55733 -7.1179571755420055 -11.527637523528584 11.872824542123205 0 0 0
879 220 2 0.55733 -9.131550459051264 -9.959283323800337 -12.643287752944914 1 1 0
2445 612 1 1.71637987 -9.604140937059697 -11.704216144266521 -12.2604098502584 -2 4 0
3743 612 9 -1.71637987 -9.563319017919664 -11.687121995007814 -12.25580293222319 -2 4 0
2448 612 3 -1.11466 -9.821849792882118 -11.629811189296388 -12.303272556232857 -2 4 0
2121 531 1 1.71637987 -7.702782637203345 -9.054936770234212 -16.98898430132848 1 0 0
3670 531 9 -1.71637987 -7.728226824751149 -9.102669080528166 -16.974693421163842 1 0 0
999 250 2 0.55733 -6.943640568006343 -10.250516630146262 -13.516217988089526 0 2 0
282 71 2 0.55733 -11.856285120935494 -8.658392749846504 -17.28017237863926 0 2 0
1644 411 3 -1.11466 -9.82983120905226 -12.16427120371084 -8.620484813105989 -1 -1 0
2447 612 2 0.55733 -10.08007796638486 -11.729393805652805 -13.089713559253042 -2 4 0
513 129 1 1.71637987 -7.100783646897387 -12.343644409118317 13.596383753098781 0 2 0
877 220 1 1.71637987 -8.811782086445543 -9.25611296923617 -13.20862626535622 1 1 0
880 220 3 -1.11466 -9.031339195622547 -9.334328673673866 -13.18751759590611 1 1 0
3313 220 9 -1.71637987 -8.767095951705683 -9.241363368214351 -13.205906111196253 1 1 0
2931 733 2 0.55733 -10.432948132825844 -12.226439104760281 -17.560860042608873 0 1 0
1690 423 2 0.55733 -9.869208025592007 -8.403253943567977 14.132707037395601 0 1 0
2446 612 2 0.55733 -10.210297607251604 -11.30752551124576 -11.64030210409498 -2 4 0
3522 378 9 -1.71637987 -11.876734365910798 -10.529493626162916 -11.062224810274436 0 1 0
1510 378 2 0.55733 -12.236760745667489 -10.532152454652858 -11.983912486283632 0 1 0
1512 378 3 -1.11466 -12.002632493902318 -10.298760576974596 -11.217615733353858 0 1 0
1509 378 1 1.71637987 -11.930688010529405 -10.474100016447313 -11.079031793954918 0 1 0
3031 758 2 0.55733 -6.44148958082948 -11.767847846335822 -14.511285723092312 3 0 0
34 9 2 0.55733 -6.904362349978516 -10.125130200540156 -8.530832553258273 -4 2 0
3488 393 9 -1.71637987 -8.59694217901497 -11.840115867239621 -16.80768359087346 0 2 0
3810 655 9 -1.71637987 -10.01760334672433 -11.843839725916693 13.182571153403703 1 3 0
3045 762 1 1.71637987 -10.115588635857959 -12.163349074390114 16.380132671933474 0 1 0
1572 393 3 -1.11466 -8.326355437635433 -11.699662436387511 -16.815030042767244 0 2 0
2576 644 3 -1.11466 -6.813336102552845 -12.37312487013674 -11.703131972224032 0 -3 0
2550 638 2 0.55733 -11.200824308176287 -11.841645351818674 -0.79120939063797 -1 -2 0
560 140 3 -1.11466 -10.221458630140424 -12.08712368537172 9.2543424020992 0 -1 0
3554 423 9 -1.71637987 -9.462931824653147 -8.646731061560402 13.231042061376181 0 1 0
1692 423 3 -1.11466 -9.593420791106688 -8.82981584480362 13.470354737045584 0 1 0
3514 422 9 -1.71637987 -12.299773984070718 -10.142581951910495 12.278550276512147 1 2 0
2298 575 2 0.55733 -8.484931475802837 -11.029482800570946 -5.434390932723639 1 1 0
2203 551 2 0.55733 -10.085662746869428 -10.974097702540405 -4.058846967524516 0 2 0
372 93 3 -1.11466 -8.773996785174885 -9.479475886816443 -8.604859215819625 0 2 0
2551 638 2 0.55733 -12.251471031673853 -10.761453863300462 -0.9525218421762398 -1 -2 0
1643 411 2 0.55733 -9.300955388296199 -11.530599777677848 -8.503675132283018 -1 -1 0
3233 140 9 -1.71637987 -10.464998090910969 -11.895609992383907 9.314524310197376 0 -1 0
1442 361 2 0.55733 -12.380352417276095 -10.952432190529741 -7.396159112626613 1 -1 0
1437 360 1 1.71637987 -9.782536610834937 -9.69825426222812 -5.929685304108876 -1 1 0
3475 360 9 -1.71637987 -9.725876016373105 -9.739283246937672 -5.948439824122359 -1 1 0
1440 360 3 -1.11466 -9.9547801737117 -9.633028607527416 -5.781128554689638 -1 1 0
1439 360 2 0.55733 -9.69896540931519 -9.173907852915168 -5.133771107804947 -1 1 0
369 93 1 1.71637987 -8.678146583917155 -9.69029271516911 -8.636324157550565 0 2 0
1438 360 2 0.55733 -10.716450735335126 -9.89794167500602 -5.992536544089648 -1 1 0
3353 93 9 -1.71637987 -8.637088562992178 -9.758436283494673 -8.635048487730469 0 2 0
1691 423 2 0.55733 -9.566695011566132 -9.65115765685518 13.32738043227052 0 1 0
2300 575 3 -1.11466 -7.8670299074431975 -11.299735303055304 -4.943241890457607 1 1 0
1511 378 2 0.55733 -11.979874580734268 -9.54335575694487 -10.863836708823337 0 1 0
2297 575 1 1.71637987 -7.734783100316154 -11.46970546495405 -5.034633814511707 1 1 0
3872 575 9 -1.71637987 -7.717239578626893 -11.51433018600839 -5.074138407914645 1 1 0
370 93 2 0.55733 -8.789404850857867 -8.997687679979991 -9.286253951538963 0 2 0
2301 576 1 1.71637987 -6.886987126619199 -11.484901036593211 10.945629420297536 0 0 0
2929 733 1 1.71637987 -11.35173095927154 -12.245570984484704 -17.827277524228034 0 1 0
1570 393 2 0.55733 -7.686018664358464 -12.158702388623974 -16.544048606989065 0 2 0
2575 644 2 0.55733 -6.328651600295191 -11.696211847007284 -11.659856426419854 0 -3 0
443 111 2 0.55733 -9.697081218576043 -12.141148495810889 -15.350464838675023 0 3 0
2614 654 2 0.55733 -7.38426056820021 -9.608479079691199 -2.575465754827219 0 -2 0
1688 422 3 -1.11466 -12.142265359397205 -10.29659586293793 12.088231874860275 1 2 0
771 193 2 0.55733 -12.175860846798935 -8.66130797198122 -6.820509148483337 -1 -2 0
2615 654 2 0.55733 -6.644802589640905 -10.787118870026845 -1.975295453558171 0 -2 0
2299 575 2 0.55733 -7.642542593855146 -11.064328850378372 -4.174268398490298 1 1 0
2202 551 2 0.55733 -10.590659723493776 -11.603907882035049 -2.7765976401590535 0 2 0
1580 395 3 -1.11466 -10.154246055261936 -8.43911819156636 -0.3470304941813448 0 2 0
2613 654 1 1.71637987 -7.349639472201449 -10.563618838538838 -2.57943046099802 0 -2 0
3794 654 9 -1.71637987 -7.367880234106502 -10.595470761954694 -2.6508073698630263 0 -2 0
3046 762 2 0.55733 -9.207774210508786 -12.325703829302151 16.12683894612596 0 1 0
3785 638 9 -1.71637987 -11.296132185608533 -10.943722983708332 -1.2103210765951005 -1 -2 0
1579 395 2 0.55733 -10.382801070366042 -9.163116791784343 -0.6942469301784009 0 2 0
2552 638 3 -1.11466 -11.497418324616682 -11.104069920191906 -1.0455017864650265 -1 -2 0
2549 638 1 1.71637987 -11.34257328010682 -10.970486688040495 -1.1623813778961714 -1 -2 0
3716 576 9 -1.71637987 -6.892540871759942 -11.534018632511636 10.896457786224381 0 0 0
2204 551 3 -1.11466 -10.401097316762948 -11.586444639848342 -3.588131373108877 0 2 0
2616 654 3 -1.11466 -7.215475805569637 -10.41579349263574 -2.456842591949271 0 -2 0
3048 762 3 -1.11466 -10.036603817749743 -12.244448169086429 16.174094051565547 0 1 0
2201 551 1 1.71637987 -10.443139550976053 -11.78562887769058 -3.7025992276298503 0 2 0
3673 551 9 -1.71637987 -10.479979512909013 -11.823769105362537 -3.7224293265409782 0 2 0
3487 361 9 -1.71637987 -12.250850726721508 -11.802258867117029 -7.942688526333666 1 -1 0
3732 598 9 -1.71637987 -7.6849674289661145 -10.780374620293104 4.032349724389871 -2 1 0
2389 598 1 1.71637987 -7.726386433008345 -10.797650759827372 4.102805061336824 -2 1 0
1569 393 1 1.71637987 -8.531796759732568 -11.816668003322164 -16.830808257733896 0 2 0
2617 655 1 1.71637987 -9.984627941122199 -11.901920095005762 13.18355176757549 1 3 0
3880 733 9 -1.71637987 -11.421527928760174 -12.188337695803042 -17.82947060848828 0 1 0
1622 406 2 0.55733 -6.991634548032072 -8.5855775385269 1.1454847134867117 -2 -2 0
150 38 2 0.55733 -7.810040471675226 -12.284834999796804 2.037855263697478 0 0 0
1689 423 1 1.71637987 -9.509615184493395 -8.698029868326481 13.296916380792695 0 1 0
427 107 2 0.55733 -6.320627731788387 -10.189573898493498 2.86263819133056 0 -1 0
3768 643 9 -1.71637987 -6.758239978255346 -8.862729578929049 9.768447909134169 0 0 0
2795 699 2 0.55733 -10.05831034548813 -8.601333414904554 9.165455432266446 1 0 0
1278 320 2 0.55733 -10.223995237273735 -10.780665202651313 6.214709092170964 2 -1 0
2392 598 3 -1.11466 -7.766283771587489 -10.894239296352806 4.313878683947429 -2 1 0
2390 598 2 0.55733 -8.545471904685325 -10.803453683985762 4.596971949431893 -2 1 0
2391 598 2 0.55733 -7.105337511956051 -11.271865250604922 4.654254624451483 -2 1 0
3002 751 2 0.55733 -12.2412683725401 -11.296881657980077 9.471811850166684 -2 1 0
2261 566 1 1.71637987 -6.33296915155398 -11.943406960144422 6.215048587994561 0 1 0
557 140 1 1.71637987 -10.413239747604731 -11.97113458394303 9.31953543676857 0 -1 0
3438 320 9 -1.71637987 -9.701304837095568 -10.276803101761853 5.530756120420123 2 -1 0
1277 320 1 1.71637987 -9.746666298122053 -10.25021248735063 5.57688325436025 2 -1 0
1280 320 3 -1.11466 -9.782489733433952 -10.203033965845464 5.805863228983101 2 -1 0
2794 699 2 0.55733 -9.881321501558118 -10.105321935475201 9.095247042248776 1 0 0
2796 699 3 -1.11466 -9.624210776372758 -9.31371692403302 9.150899376152612 1 0 0
2793 699 1 1.71637987 -9.39268218205561 -9.288320521627229 9.165084712263694 1 0 0
3818 699 9 -1.71637987 -9.293731686421955 -9.263733738687556 9.156857082103059 1 0 0
2264 566 3 -1.11466 -6.4764057590185065 -12.02779380472996 6.3809370236084675 0 1 0
2263 566 2 0.55733 -6.923167798010402 -11.448164576761311 6.778555699424805 0 1 0
1279 320 2 0.55733 -9.44269073108813 -9.49019254269797 6.072554158386019 2 -1 0
3696 566 9 -1.71637987 -6.305562282787305 -11.884615282340816 6.158571582915108 0 1 0
2570 643 2 0.55733 -7.731014012899408 -9.039140449343657 9.568517958962278 0 0 0
2302 576 2 0.55733 -6.642567997382481 -10.573338180988946 10.794857145970665 0 0 0
2572 643 3 -1.11466 -6.963499123403687 -8.71164611851502 9.608087401198155 0 0 0
1735 434 2 0.55733 -12.032596449252802 -9.0439544013202 2.7703568984784934 0 2 0
1685 422 1 1.71637987 -12.248829598823505 -10.144340243857208 12.230586254452467 1 2 0
1818 455 2 0.55733 -9.725640987073469 -8.519057774311248 3.092611681305959 1 0 0
2569 643 1 1.71637987 -6.815468321083351 -8.825874989346545 9.743919388457918 0 0 0
371 93 2 0.55733 -9.04186263689168 -9.331216037003625 -7.828758607880202 0 2 0
2620 655 3 -1.11466 -9.889991019142375 -12.108271285138262 13.120239293243474 1 3 0
2395 599 2 0.55733 -11.88755707756683 -8.394784829938684 15.139012619354288 2 0 0
3883 762 9 -1.71637987 -10.106083808557146 -12.149698530660206 16.408500052687266 0 1 0
3253 129 9 -1.71637987 -7.15883648139293 -12.302092560561324 13.541246010718611 0 2 0
1687 422 2 0.55733 -11.537940786744938 -10.747167830250044 12.443933747549227 1 2 0
878 220 2 0.55733 -9.58789858353321 -8.938182661102026 -13.667326177742124 1 1 0
2619 655 2 0.55733 -9.086718720909033 -12.19876755750132 13.323199316831655 1 3 0
1641 411 1 1.71637987 -9.728331821397127 -12.361129015401822 -8.700169305665614 -1 -1 0
559 140 2 0.55733 -9.762168515117708 -12.38192172978571 9.884846386458861 0 -1 0
3047 762 2 0.55733 -10.629869109440826 -12.396892295934043 15.606947739484086 0 1 0
583 146 2 0.55733 -12.299084408530515 -12.338202851810788 -3.454810302278824 0 4 0
558 140 2 0.55733 -10.106378767192894 -12.133941575748707 8.429832856665534 0 -1 0
936 234 3 -1.11466 -12.068664850730595 -5.427793440031128 1.7589239882706784 -1 -2 0
1933 484 1 1.71637987 -6.762285187422162 -5.471151357196606 -15.906940325140509 -1 1 0
3624 484 9 -1.71637987 -6.807246972121993 -5.455260948644815 -15.9691536826865 -1 1 0
1936 484 3 -1.11466 -6.654419951125445 -5.4229996227372075 -15.703218452280652 -1 1 0
2975 744 2 0.55733 -9.723734645427214 -6.137651572115637 -15.371941462736089 0 1 0
2976 744 3 -1.11466 -9.37369687924642 -5.396116572339123 -15.518016456814493 0 1 0
2973 744 1 1.71637987 -9.517608025608851 -5.213949732591062 -15.490653332053027 0 1 0
2974 744 2 0.55733 -8.597160052371386 -5.196911090947713 -15.75020348770758 0 1 0
3898 744 9 -1.71637987 -9.558743309908632 -5.160433487025383 -15.462335018803513 0 1 0
1770 443 2 0.55733 -12.13258620308354 -7.019016785817015 -11.060246026899028 0 1 0
646 162 2 0.55733 -11.436831749387148 -6.534096823434565 -18.143650842165922 0 2 0
847 212 2 0.55733 -11.15242967046831 -6.862377262913941 -13.434056616981447 2 2 0
845 212 1 1.71637987 -11.13120089093703 -7.518389980559362 -14.131080414871931 2 2 0
3325 212 9 -1.71637987 -11.07642185488829 -7.526965861834992 -14.183899716093677 2 2 0
848 212 3 -1.11466 -11.319961018593164 -7.422575012869868 -14.029090828821666 2 2 0
809 203 1 1.71637987 -11.434756920706121 -5.636066338367838 -12.223505243885391 0 1 0
3302 203 9 -1.71637987 -11.433172474299527 -5.72097727065387 -12.226340592633635 0 1 0
812 203 3 -1.11466 -11.421371956491246 -5.452994100594911 -12.369301843127321 0 1 0
1478 370 2 0.55733 -6.494614594651771 -7.145753741294333 13.479893903160324 -1 1 0
2838 710 2 0.55733 -9.233485553326398 -7.648036600379832 -11.3508167944982 1 0 0
2583 646 2 0.55733 -10.910044723429571 -8.04030423588191 -2.9779969368239874 -1 -1 0
2581 646 1 1.71637987 -10.237547603898062 -8.091423431657992 -3.656324334269523 -1 -1 0
2337 585 1 1.71637987 -7.985305182538326 -7.756263719568789 7.01638939586996 1 1 0
2584 646 3 -1.11466 -10.20641401557963 -8.05814497145346 -3.4275021398031424 -1 -1 0
3495 370 9 -1.71637987 -7.391552456632921 -6.744364827056774 13.475090168873203 -1 1 0
648 162 3 -1.11466 -12.041683578905527 -6.127926834176865 -18.548908903518726 0 2 0
2798 700 2 0.55733 -7.815694713432196 -7.81663219393562 -1.1309362540155545 -1 1 0
1934 484 2 0.55733 -6.5789982296872545 -4.610939437896844 -15.530573164119257 -1 1 0
846 212 2 0.55733 -12.050682944863903 -7.702588634940823 -14.321608635442374 2 2 0
3747 599 9 -1.71637987 -11.099130223720131 -7.869365871813492 15.410733420655157 2 0 0
810 203 2 0.55733 -10.689591549660411 -5.052377958410192 -12.356231067714821 0 1 0
695 174 2 0.55733 -10.608170425428412 -7.029149924846478 -6.3885893825770825 1 0 0
1477 370 1 1.71637987 -7.390218973441175 -6.810488395917011 13.437635078583371 -1 1 0
2396 599 3 -1.11466 -11.34650144541055 -7.916526974147581 15.557776489397602 2 0 0
3441 162 9 -1.71637987 -12.032505458688126 -5.803048776195849 -18.459552086672616 0 2 0
645 162 1 1.71637987 -12.040255380576278 -5.895431809977105 -18.518712323287215 0 2 0
113 29 1 1.71637987 -7.836285131277145 -4.49106810213237 -0.8544363699116096 -3 0 0
933 234 1 1.71637987 -11.879172320993423 -5.551888131440849 1.8151434151256203 -1 -2 0
284 71 3 -1.11466 -11.349259120739681 -8.070369388707466 -16.976511873062446 0 2 0
1769 443 1 1.71637987 -12.330164508762044 -7.756045330516062 -10.484758017619184 0 1 0
693 174 1 1.71637987 -11.039097578607024 -7.211747849094955 -7.2224468957007 1 0 0
276 69 3 -1.11466 -10.196259739255153 -5.036329289744994 -4.26377122630923 -2 0 0
3179 65 9 -1.71637987 -7.45942654619406 -4.931917283389666 -3.5730329336938653 0 0 0
3577 443 9 -1.71637987 -12.283026616521491 -7.795529181205546 -10.466350490370878 0 1 0
2839 710 2 0.55733 -10.216443228765463 -7.731410064488678 -10.199745345883642 1 0 0
259 65 2 0.55733 -6.7331960602260335 -5.59751577801295 -3.8043534256808367 0 0 0
1056 264 3 -1.11466 -11.888125977827976 -6.511299753343127 -1.634333455082674 0 1 0
696 174 3 -1.11466 -10.909682750158584 -7.0228594642253395 -7.165481560455028 1 0 0
260 65 3 -1.11466 -7.237685572173515 -5.063906182430632 -3.410436205454205 0 0 0
2119 530 2 0.55733 -7.8401149015079135 -5.865652220087203 -9.669308262156353 -2 0 0
257 65 1 1.71637987 -7.412023453534452 -4.978859705131115 -3.543670453282272 0 0 0
2797 700 1 1.71637987 -7.623727557116343 -7.799311769199935 -2.0668862725847132 -1 1 0
275 69 2 0.55733 -10.535161805061184 -5.7926641915490436 -4.169397302580328 -2 0 0
273 69 1 1.71637987 -10.33913335547433 -4.876906380817503 -4.36438451695657 -2 0 0
1117 280 1 1.71637987 -11.31862145030951 -7.422487466083324 8.489031404714066 1 -1 0
3680 530 9 -1.71637987 -6.98947293311292 -5.638909237944966 -9.209109625160972 -2 0 0
2840 710 3 -1.11466 -9.471281606449942 -7.6039231718892255 -10.551877310452817 1 0 0
3875 710 9 -1.71637987 -9.262667011706652 -7.556035923996942 -10.375510321707187 1 0 0
3189 69 9 -1.71637987 -10.382701122139126 -4.842392565248266 -4.377248517816137 -2 0 0
2837 710 1 1.71637987 -9.299684234971224 -7.546107152306474 -10.402592252364748 1 0 0
720 180 3 -1.11466 -10.087209970601304 -4.312939020854118 -8.460622744111689 -1 1 0
717 180 1 1.71637987 -10.194430251730012 -4.518665589269068 -8.496025466091599 -1 1 0
274 69 2 0.55733 -9.437094014290324 -4.751877166233318 -4.068631476574485 -2 0 0
3300 180 9 -1.71637987 -10.223247589988572 -4.564970619369269 -8.489926898419467 -1 1 0
3844 700 9 -1.71637987 -7.636684829265566 -7.8548731443107105 -2.119076168866187 -1 1 0
281 71 1 1.71637987 -11.207454873890104 -7.9730264775334065 -17.1339328455214 0 2 0
3281 174 9 -1.71637987 -11.067416820300394 -7.256229837552465 -7.225615179103665 1 0 0
2117 530 1 1.71637987 -6.993671308848151 -5.669476535097091 -9.270883192845668 -2 0 0
2120 530 3 -1.11466 -7.037644502251148 -5.718454899114872 -9.495272043446445 -2 0 0
694 174 2 0.55733 -10.829077274048904 -6.458877980674133 -7.775599714549283 1 0 0
2582 646 2 0.55733 -9.410448615659892 -7.976102519243369 -3.1907679018744464 -1 -1 0
935 234 2 0.55733 -12.152802898483426 -5.273587470060623 0.9425837423956608 -1 -2 0
283 71 2 0.55733 -11.264354564915752 -7.772235507688288 -16.202510144094383 0 2 0
3550 406 9 -1.71637987 -7.711215046768032 -8.029826131378002 0.6651055938652907 -2 -2 0
3110 20 9 -1.71637987 -9.986672144410816 -5.341260993525989 16.584576485511548 -4 -5 0
1118 280 2 0.55733 -11.507589791999012 -6.714322152314898 7.874619584967236 1 -1 0
114 29 2 0.55733 -7.8155150533512785 -4.640180570776996 0.08976513390395902 -3 0 0
971 243 2 0.55733 -8.211396263068965 -5.32942158032287 2.3075704033551414 -2 2 0
966 242 2 0.55733 -10.592007784654196 -4.80889974283701 2.592764028496731 2 2 0
3190 71 9 -1.71637987 -11.179743899441684 -7.919211105244167 -17.169024126967845 0 2 0
709 178 1 1.71637987 -11.58166899103344 -4.640157399503097 19.130071305180277 1 1 0
2338 585 2 0.55733 -8.270362645832641 -8.125249653769757 7.850673515688805 1 1 0
972 243 3 -1.11466 -7.4316014261618015 -5.27924061760898 2.0126280027517147 -2 2 0
1623 406 2 0.55733 -7.663375357353703 -7.231929587108439 1.2626733886350028 -2 -2 0
3344 243 9 -1.71637987 -7.432396885647881 -5.305048073280855 1.7092634539034097 -2 2 0
969 243 1 1.71637987 -7.415200154855139 -5.272052772397971 1.7798192829297625 -2 2 0
968 242 3 -1.11466 -10.060152951389183 -4.4745730215762824 3.1413450637421154 2 2 0
965 242 1 1.71637987 -9.841107503575955 -4.562971388866731 3.131633890925055 2 2 0
258 65 2 0.55733 -7.223772975074915 -4.7796417474373545 -2.627133115047204 0 0 0
3364 242 9 -1.71637987 -9.76344183866416 -4.617801627368682 3.156957467755599 2 2 0
711 178 2 0.55733 -11.075383119711642 -5.322580292624742 19.568213942374253 1 1 0
79 20 2 0.55733 -10.745729818913759 -5.1013117759178845 17.205806937273255 -4 -5 0
3907 646 9 -1.71637987 -10.226039711575366 -8.108952610291414 -3.71395128867697 -1 -1 0
1055 264 2 0.55733 -11.349387506312636 -6.9981154358285975 -1.2234177341423509 0 1 0
3591 455 9 -1.71637987 -10.628315566350125 -8.162341081851391 3.3022449137406205 1 0 0
2799 700 2 0.55733 -7.413256531344997 -6.885637014922286 -2.257886241937739 -1 1 0
1819 455 2 0.55733 -10.650552651561153 -7.374699380041607 2.7285297993764748 1 0 0
1120 280 3 -1.11466 -11.513121985293466 -7.291187656363406 8.477507214023058 1 -1 0
1817 455 1 1.71637987 -10.5807198025745 -8.144761627970672 3.292470200072118 1 0 0
1820 455 3 -1.11466 -10.423640635759023 -8.065427830581186 3.13870967584504 1 0 0
3191 76 9 -1.71637987 -9.754867650729139 -4.620542749632078 8.010550172789245 -2 1 0
2800 700 3 -1.11466 -7.620857421606953 -7.617624154035005 -1.9167897173527149 -1 1 0
303 76 2 0.55733 -8.96078730441124 -4.852638319809515 8.552595204111512 -2 1 0
576 144 3 -1.11466 -12.046910970290767 -6.608554424884678 5.23595519639539 -1 0 0
304 76 3 -1.11466 -9.475480435434832 -4.731270344803404 7.906512800077964 -2 1 0
1054 264 2 0.55733 -12.09596227189839 -5.711742885664231 -1.5160647606814972 0 1 0
951 238 2 0.55733 -10.163691376474436 -7.303723611769054 10.371955853572164 0 0 0
863 216 2 0.55733 -7.592413186942574 -4.890199912204173 5.45451441865089 2 0 0
924 231 3 -1.11466 -7.965686752574596 -5.215371523279967 10.243341691855838 1 -3 0
301 76 1 1.71637987 -9.691480163611107 -4.665774938812038 7.965815185073661 -2 1 0
921 231 1 1.71637987 -8.031415708949302 -4.993489996419175 10.212861753932682 1 -3 0
3506 231 9 -1.71637987 -8.06999597464564 -4.9189072875204465 10.166971497775934 1 -3 0
862 216 2 0.55733 -8.902468742312406 -5.140094272056291 4.7340406293347765 2 0 0
949 238 1 1.71637987 -9.808947944284505 -6.937368760415856 11.179915572713092 0 0 0
3361 238 9 -1.71637987 -9.804125913726743 -6.862839030193263 11.1653663737066 0 0 0
3238 144 9 -1.71637987 -12.02009277179115 -6.365497685146735 5.437276584203549 -1 0 0
573 144 1 1.71637987 -12.01424070608868 -6.4400173728259364 5.396475608000592 -1 0 0
574 144 2 0.55733 -11.56119612016629 -6.549556743422525 4.561354859932194 -1 0 0
1053 264 1 1.71637987 -12.00132941520021 -6.616756152033576 -1.8103279493972093 0 1 0
2339 585 2 0.55733 -8.456713407485047 -6.9291306163820625 6.937829322649809 1 1 0
1119 280 2 0.55733 -12.096749836594418 -7.479911373315955 9.0429776204857 1 -1 0
970 243 2 0.55733 -6.700444924512137 -5.251628762207124 2.414501738604011 -2 2 0
2340 585 3 -1.11466 -8.134698245247105 -7.6634395870436816 7.168519072668667 1 1 0
811 203 2 0.55733 -12.112550619127536 -5.308911678097407 -12.813749740134664 0 1 0
922 231 2 0.55733 -7.208141029773408 -5.397833390249031 9.944419160324124 1 -3 0
526 132 2 0.55733 -11.365896940181218 -4.354289521138334 13.487325615127931 -2 2 0
3327 216 9 -1.71637987 -8.535666855586808 -5.178636364129558 5.689567449184389 2 0 0
861 216 1 1.71637987 -8.498038554103161 -5.161285178524805 5.599538327129755 2 0 0
864 216 3 -1.11466 -8.397395487933823 -5.101807125278827 5.396374661214059 2 0 0
952 238 3 -1.11466 -9.84039624047917 -7.163485831132683 11.12692246461429 0 0 0
302 76 2 0.55733 -9.343250197490702 -4.810095761542028 7.085411793107128 -2 1 0
923 231 2 0.55733 -8.524317069589923 -5.695449893574317 10.63457136175014 1 -3 0
3298 29 9 -1.71637987 -7.807264110705266 -4.500355093398632 -0.9228606719345975 -3 0 0
3286 178 9 -1.71637987 -11.557846039670638 -4.623819653446852 19.094950717578794 1 1 0
2393 599 1 1.71637987 -11.149376458026355 -7.868096867275102 15.44322300974169 2 0 0
1935 484 2 0.55733 -6.413827845526059 -6.094972541843844 -15.272357807041551 -1 1 0
3343 224 9 -1.71637987 -7.607664595699752 -4.795945218975872 15.257580172657821 -1 1 0
1479 370 2 0.55733 -7.931509577573718 -7.5779375477470925 13.26475714271786 -1 1 0
77 20 1 1.71637987 -10.054862412780366 -5.338741079508818 16.589054252028287 -4 -5 0
2245 562 1 1.71637987 -11.971470943288322 -5.15353153899388 11.849635782142235 0 0 0
2246 562 2 0.55733 -11.168618251465112 -5.627634344024346 11.636251371562965 0 0 0
3718 562 9 -1.71637987 -11.95554039356712 -5.064958278219517 11.880042051577025 0 0 0
893 224 1 1.71637987 -7.672731164605735 -4.867816806597047 15.266611926253098 -1 1 0
896 224 3 -1.11466 -7.815299455640871 -5.053690174855868 15.237161913770544 -1 1 0
2394 599 2 0.55733 -11.395788625068283 -7.583116852343731 16.32160243250289 2 0 0
3355 234 9 -1.71637987 -11.801898856472052 -5.560287293609745 1.865288834184445 -1 -2 0
950 238 2 0.55733 -9.607344349973829 -7.694990021764611 11.726198615488139 0 0 0
895 224 2 0.55733 -8.374905050677095 -5.158383579857662 15.846618038030098 -1 1 0
78 20 2 0.55733 -10.48506692781812 -5.343601374163128 15.732012827539997 -4 -5 0
894 224 2 0.55733 -7.67939511928595 -5.494223534290585 14.54237920189584 -1 1 0
116 29 3 -1.11466 -7.999271176318584 -4.428707483550939 -0.6966220973283267 -3 0 0
1480 370 3 -1.11466 -7.318940628782481 -7.030967786397898 13.41207434040208 -1 1 0
2248 562 3 -1.11466 -11.942071354732908 -5.386330914224406 11.832816379839715 0 0 0
80 20 3 -1.11466 -10.281076997272375 -5.292188746047481 16.5395758359928 -4 -5 0
3753 585 9 -1.71637987 -7.9394949174497595 -7.78228332389783 7.007031797471134 1 1 0
712 178 3 -1.11466 -11.661737072158463 -4.806603868412867 19.27635270860925 1 1 0
3403 280 9 -1.71637987 -11.239464301758083 -7.468430682094219 8.526275371893629 1 -1 0
1621 406 1 1.71637987 -7.647845841055924 -8.027977048390143 0.7324900364893164 -2 -2 0
974 244 2 0.55733 -6.39070124701338 -5.46870067775672 -7.5491728874879485 -2 2 0
3398 264 9 -1.71637987 -12.035933352805886 -6.674988977587053 -1.8627093691179917 0 1 0
794 199 2 0.55733 -11.502724305510139 -4.369266277726497 -17.791982193118997 1 0 0
2571 643 2 0.55733 -6.640124365391634 -8.041191774088528 9.228369904945627 0 0 0
1624 406 3 -1.11466 -7.5193773985199375 -7.980109215113103 0.9219340741955401 -2 -2 0
375 94 2 0.55733 -6.62899211573262 -7.150786274432411 -13.289814011901047 0 2 0
2118 530 2 0.55733 -6.366289726197534 -5.718673471452486 -9.98891457770972 -2 0 0
2219 555 2 0.55733 -9.500003877642657 -4.457254938885429 -13.797030517920659 1 0 0
795 199 2 0.55733 -10.673566855151359 -4.145477337563024 -16.543503004055186 1 0 0