LAMMPS data file via write_data, version 29 Sep 2021, timestep = 6000000

3910 atoms
14 atom types
3109 bonds
9 bond types
2305 angles
3 angle types
768 impropers
1 improper types

-12.418372 12.418372 xlo xhi
-12.418372 12.418372 ylo yhi
-55.882675 55.882675 zlo zhi

Masses

1 15.2
2 1
3 0.001
4 15.2
5 15.2
6 22.2
7 126.2
8 34.2
9 0.8
10 0.8
11 0.8
12 0.8
13 0.8
14 0.8

PairIJ Coeffs # lj/cut/thole/long/omp

1 1 0.18985 3.18395 0.97825 2.6 12
1 2 0 1.59197 0 2.6 12
1 3 0 1.59197 0 2.6 12
1 4 0.16326 3.19381 0.96402 2.6 12
1 5 0.16326 3.19381 0.96402 2.6 12
1 6 0.13292 2.72788 0.48454 2.6 12
1 7 0.13706 4.15423 2.60182 2.6 12
1 8 0.13466 3.76133 1.89993 2.6 12
1 9 0.01055 3.18395 0.97825 2.6 12
1 10 0.00907 3.19381 0.96402 2.6 12
1 11 0.00907 3.19381 0.96402 2.6 12
1 12 0.00505 2.72788 0.48454 2.6 12
1 13 0.00091 4.15423 2.60182 2.6 12
1 14 0.00332 3.76133 1.89993 2.6 12
2 2 0 0 0 2.6 12
2 3 0 0 0 2.6 12
2 4 0 1.60183 0 2.6 12
2 5 0 1.60183 0 2.6 12
2 6 0 1.1359 0 2.6 12
2 7 0 2.56225 0 2.6 12
2 8 0 2.16935 0 2.6 12
2 9 0 1.59197 0 2.6 12
2 10 0 1.60183 0 2.6 12
2 11 0 1.60183 0 2.6 12
2 12 0 1.1359 0 2.6 12
2 13 0 2.56225 0 2.6 12
2 14 0 2.16935 0 2.6 12
3 3 0 0 0 2.6 12
3 4 0 1.60183 0 2.6 12
3 5 0 1.60183 0 2.6 12
3 6 0 1.1359 0 2.6 12
3 7 0 2.56225 0 2.6 12
3 8 0 2.16935 0 2.6 12
3 9 0 1.59197 0 2.6 12
3 10 0 1.60183 0 2.6 12
3 11 0 1.60183 0 2.6 12
3 12 0 1.1359 0 2.6 12
3 13 0 2.56225 0 2.6 12
3 14 0 2.16935 0 2.6 12
4 4 0.1404 3.20367 0.95 2.6 12
4 5 0.1404 3.20367 0.95 2.6 12
4 6 0.11431 2.73773 0.47749 2.6 12
4 7 0.11787 4.16409 2.56398 2.6 12
4 8 0.1158 3.77119 1.8723 2.6 12
4 9 0.00907 3.19381 0.96402 2.6 12
4 10 0.0078 3.20367 0.95 2.6 12
4 11 0.0078 3.20367 0.95 2.6 12
4 12 0.00434 2.73773 0.47749 2.6 12
4 13 0.00079 4.16409 2.56398 2.6 12
4 14 0.00285 3.77119 1.8723 2.6 12
5 5 0.1404 3.20367 0.95 2.6 12
5 6 0.11431 2.73773 0.47749 2.6 12
5 7 0.11787 4.16409 2.56398 2.6 12
5 8 0.1158 3.77119 1.8723 2.6 12
5 9 0.00907 3.19381 0.96402 2.6 12
5 10 0.0078 3.20367 0.95 2.6 12
5 11 0.0078 3.20367 0.95 2.6 12
5 12 0.00434 2.73773 0.47749 2.6 12
5 13 0.00079 4.16409 2.56398 2.6 12
5 14 0.00285 3.77119 1.8723 2.6 12
6 6 0.09304 2.2718 0.24 2.6 12
6 7 0.09589 3.69815 1.28872 2.6 12
6 8 0.09424 3.30525 0.94106 2.6 12
6 9 0.00726 2.72788 0.48454 2.6 12
6 10 0.00624 2.73773 0.47749 2.6 12
6 11 0.00624 2.73773 0.47749 2.6 12
6 12 0.00348 2.2718 0.24 2.6 12
6 13 0.00063 3.69815 1.28872 2.6 12
6 14 0.00229 3.30525 0.94106 2.6 12
7 7 0.09874 5.1245 6.92 2.6 12
7 8 0.09708 4.7316 5.0532 2.6 12
7 9 0.00726 4.15423 2.60182 2.6 12
7 10 0.00624 4.16409 2.56398 2.6 12
7 11 0.00624 4.16409 2.56398 2.6 12
7 12 0.00348 3.69815 1.28872 2.6 12
7 13 0.00063 5.1245 6.92 2.6 12
7 14 0.00229 4.7316 5.0532 2.6 12
8 8 0.09543 4.3387 3.69 2.6 12
8 9 0.00726 3.76133 1.89993 2.6 12
8 10 0.00624 3.77119 1.8723 2.6 12
8 11 0.00624 3.77119 1.8723 2.6 12
8 12 0.00348 3.30525 0.94106 2.6 12
8 13 0.00063 4.7316 5.0532 2.6 12
8 14 0.00229 4.3387 3.69 2.6 12
9 9 0 3.18395 0.97825 2.6 12
9 10 0 3.19381 0.96402 2.6 12
9 11 0 3.19381 0.96402 2.6 12
9 12 0 2.72788 0.48454 2.6 12
9 13 0 4.15423 2.60182 2.6 12
9 14 0 3.76133 1.89993 2.6 12
10 10 0 3.20367 0.95 2.6 12
10 11 0 3.20367 0.95 2.6 12
10 12 0 2.73773 0.47749 2.6 12
10 13 0 4.16409 2.56398 2.6 12
10 14 0 3.77119 1.8723 2.6 12
11 11 0 3.20367 0.95 2.6 12
11 12 0 2.73773 0.47749 2.6 12
11 13 0 4.16409 2.56398 2.6 12
11 14 0 3.77119 1.8723 2.6 12
12 12 0 2.2718 0.24 2.6 12
12 13 0 3.69815 1.28872 2.6 12
12 14 0 3.30525 0.94106 2.6 12
13 13 0 5.1245 6.92 2.6 12
13 14 0 4.7316 5.0532 2.6 12
14 14 0 4.3387 3.69 2.6 12

Bond Coeffs # harmonic/omp

1 10000 0.9572
2 10000 0.24034
3 10000 1.278
4 500 0
5 500 0
6 500 0
7 500 0
8 500 0
9 500 0

Angle Coeffs # harmonic/omp

1 10000 104.52
2 10000 52.26
3 10000 116.8

Improper Coeffs # harmonic/omp

1 10000 0

Atoms # full

3093 787 7 3.73310092 -11.506872927533898 -10.198622627851783 -18.532233237972083 1 2 0
3581 787 13 -4.73310092 -11.476434537396127 -10.15710258184285 -18.142758023611975 1 2 0
612 153 3 -1.11466 -10.066916749727358 -8.515449832000709 -13.928210991547875 -1 1 0
610 153 2 0.55733 -10.809576288543752 -8.798872784695048 -14.181722605722252 -1 1 0
1160 290 3 -1.11466 -7.389151019751313 -10.050299694184854 -13.865937337355332 0 1 0
611 153 2 0.55733 -9.300545073981526 -8.824631712794032 -14.039129741607885 -1 1 0
1158 290 2 0.55733 -7.438918412310013 -10.302837258521823 -14.66001147790558 0 1 0
3415 290 9 -1.71637987 -7.604832604252988 -10.159478913311935 -13.666577661853594 0 1 0
1157 290 1 1.71637987 -7.564025208657465 -10.126875727016447 -13.727728640354718 0 1 0
3358 229 9 -1.71637987 -11.002171503098372 -10.73607627676495 -14.806362730338291 0 0 0
3091 785 6 1.68760387 -11.522726048354984 -9.072995898940853 -16.009926351410286 1 1 0
3798 785 12 -0.68760387 -11.484076073534323 -9.031997517471849 -16.03410744317139 1 1 0
498 125 2 0.55733 -8.613551638280368 -8.595416826961648 -16.766308550653363 0 5 0
913 229 1 1.71637987 -11.147654570283638 -10.673382526434112 -14.624115953898812 0 0 0
916 229 3 -1.11466 -11.267781454088054 -10.607856869597303 -14.434007588297572 0 0 0
2313 579 1 1.71637987 -12.39911754540393 -10.385206845815459 -2.7837723221713384 4 1 0
56 14 3 -1.11466 -12.184257678428374 -10.423591740881802 -5.73483025492749 0 -1 0
915 229 2 0.55733 -10.92956980590827 -10.847999057697729 -13.709443005881667 0 0 0
3639 781 12 -0.68760387 -10.005312219456611 -11.227738827481579 -16.347009061548626 0 1 0
3087 781 6 1.68760387 -10.021198299502636 -11.217818951970084 -16.338026097116032 0 1 0
3721 800 14 -3.45723606 -7.39566015428672 -10.610451995335008 -16.510422424539605 0 2 0
3106 800 8 2.45723606 -7.3518030593696775 -10.64994188645426 -16.625316267910264 0 2 0
914 229 2 0.55733 -11.964785183307027 -10.175554756994467 -14.590649314158048 0 0 0
1261 316 1 1.71637987 -12.344332593661882 -10.748899449099923 19.963729420797335 3 1 0
2767 692 2 0.55733 -9.427547422113843 -11.137097492989968 -11.424998117099067 1 1 0
499 125 2 0.55733 -9.825836587687277 -8.61428364406159 -17.676103752916923 0 5 0
2765 692 1 1.71637987 -10.345533671157273 -11.405389474289981 -11.445727114696561 1 1 0
3830 692 9 -1.71637987 -10.360335264010471 -11.44514758440978 -11.471384640819343 1 1 0
2768 692 3 -1.11466 -10.258578695516688 -11.197909341159221 -11.380083955201517 1 1 0
1159 290 2 0.55733 -6.822532369378847 -9.574335733194236 -13.482444510287412 0 1 0
1334 334 2 0.55733 -11.121602406860088 -10.214812256261109 18.45002989675028 0 5 0
2926 732 2 0.55733 -6.293055727517572 -10.251281054573917 -3.4414821357578633 0 1 0
2766 692 2 0.55733 -10.830725838324845 -10.643774851281846 -11.13321450296673 1 1 0
2155 539 2 0.55733 -6.748127669212407 -10.31390712312801 -10.836496895033003 1 3 0
2154 539 2 0.55733 -8.075530395504273 -9.601919372558022 -11.006942293186913 1 3 0
692 173 3 -1.11466 -10.697970943862497 -9.168767941959121 -9.021207882116752 -1 1 0
3375 250 9 -1.71637987 -9.300609355042065 -9.025103685614384 -5.492170355129918 -2 2 0
3685 539 9 -1.71637987 -7.697605632357201 -10.398956618268906 -10.528148266582283 1 3 0
2153 539 1 1.71637987 -7.667101427886126 -10.350500637145908 -10.57595618728076 1 3 0
2156 539 3 -1.11466 -7.564104700149154 -10.191692816519717 -10.714204440088464 1 3 0
1000 250 3 -1.11466 -9.343942758484866 -9.228745281665617 -5.676045468135685 -2 2 0
998 250 2 0.55733 -10.089275482276175 -9.597785880522043 -5.611650363309625 -2 2 0
997 250 1 1.71637987 -9.303659769464673 -9.059419942266373 -5.520841204417614 -2 2 0
999 250 2 0.55733 -8.716096118002932 -9.362813415098742 -6.208354802338405 -2 2 0
419 105 2 0.55733 -7.803458194048244 -10.357199062836335 -8.504283042126644 -1 2 0
3231 105 9 -1.71637987 -7.882284700651598 -9.987233718934878 -7.554008223847134 -1 2 0
417 105 1 1.71637987 -7.816303563909353 -10.038642862880872 -7.602041644653043 -1 2 0
420 105 3 -1.11466 -7.637980874676732 -10.141089048460346 -7.7158646096840355 -1 2 0
691 173 2 0.55733 -10.459176821303114 -8.729373576818956 -9.687814745212007 -1 1 0
418 105 2 0.55733 -6.941189902556182 -10.224023018695895 -7.264596747339711 -1 2 0
689 173 1 1.71637987 -10.894316447443604 -9.293747458171936 -9.051545880158747 -1 1 0
690 173 2 0.55733 -10.356965564722193 -9.236183717741383 -8.263237394232798 -1 1 0
3273 173 9 -1.71637987 -10.960078100708959 -9.322203234726 -9.039292317497216 -1 1 0
2227 557 2 0.55733 -9.860948591760664 -8.362884351094541 -3.3376507309398895 2 2 0
54 14 2 0.55733 -12.28581336665987 -10.44515555748584 -4.9070925953302496 0 -1 0
2749 688 1 1.71637987 -8.934236238884447 -8.432916482984833 15.596791694841249 4 1 0
55 14 2 0.55733 -12.278986844515558 -11.020556889435138 -6.310468159563527 0 -1 0
2829 708 1 1.71637987 -12.021167241314773 -10.443259588822967 -0.11661356241941537 0 3 0
2367 592 2 0.55733 -7.67499230888602 -11.780104606975891 -13.076535590720704 0 3 0
3837 732 9 -1.71637987 -6.805497689239232 -9.613143199146851 -2.9250662522614426 0 1 0
1378 345 2 0.55733 -8.381739532213892 -11.096285826557267 -3.3436922763814523 1 2 0
2925 732 1 1.71637987 -6.798550331686651 -9.577607063796636 -2.9915155553844803 0 1 0
3445 345 9 -1.71637987 -9.085283064424067 -11.776816734124894 -3.1952459952778387 1 2 0
1377 345 1 1.71637987 -9.068601155432441 -11.732373801977936 -3.1483431808807523 1 2 0
1380 345 3 -1.11466 -8.947178703798619 -11.602613417336284 -2.997141515304164 1 2 0
1379 345 2 0.55733 -9.153123933887755 -11.719543989154344 -2.1965908243341308 1 2 0
2844 711 3 -1.11466 -6.827615057222982 -10.515730983009556 -0.5540463778387975 1 1 0
2841 711 1 1.71637987 -7.020380225090954 -10.451395826351943 -0.4342344898735479 1 1 0
2783 696 2 0.55733 -10.074224679954852 -11.192700610115898 -0.20186576961771913 -1 5 0
3622 495 9 -1.71637987 -10.997830122272791 -9.864010466272244 3.057391231654255 1 -1 0
1977 495 1 1.71637987 -11.04343267306346 -9.856644414653283 3.0443671681141162 1 -1 0
2927 732 2 0.55733 -6.856050120695192 -8.855218578068863 -3.616355076192783 0 1 0
3840 696 9 -1.71637987 -9.421060771141173 -11.875877179823755 -0.5542180331064198 -1 5 0
1980 495 3 -1.11466 -11.25192337724616 -9.758208154659366 2.9905530669997376 1 -1 0
2781 696 1 1.71637987 -9.385633195178725 -11.801051864905533 -0.46007527084802124 -1 5 0
2784 696 3 -1.11466 -9.3587629864865 -11.591800398284306 -0.3565551251552479 -1 5 0
3216 711 9 -1.71637987 -7.074376205614216 -10.438061377072977 -0.3883136416978567 1 1 0
2782 696 2 0.55733 -8.568858701882332 -11.368488374605658 -0.20642759278403555 -1 5 0
2843 711 2 0.55733 -6.794121544320867 -10.240279576942063 -1.3407316006752321 1 1 0
1918 480 2 0.55733 -8.791220558262697 -11.721597190557322 16.599982640556007 0 3 0
3845 708 9 -1.71637987 -11.965495015231873 -10.44548165448659 -0.1335849152691209 0 3 0
3116 14 9 -1.71637987 -12.10838797783584 -10.151978697898889 -5.83297596978999 0 -1 0
407 102 2 0.55733 -7.260281543630878 -11.065666344893959 4.384417780227148 -1 1 0
1245 312 1 1.71637987 -8.644445651812479 -9.412023033664587 4.1790272473855525 3 0 0
3441 312 9 -1.71637987 -8.621089366531237 -9.46194822533976 4.207568033605985 3 0 0
1979 495 2 0.55733 -11.831508192425646 -9.808326259827462 3.588232444616493 1 -1 0
1978 495 2 0.55733 -11.28216951694818 -9.415724216552665 2.2315887492915816 1 -1 0
2832 708 3 -1.11466 -12.252338659839594 -10.478296401786341 -0.08489886962714614 0 3 0
1246 312 2 0.55733 -9.386198529829521 -9.191303432617241 3.619546155236704 3 0 0
1248 312 3 -1.11466 -8.735833310304262 -9.198319019456564 4.139323967883757 3 0 0
3824 675 9 -1.71637987 -7.232117898831808 -8.733274729558145 7.874771806728719 -2 1 0
2928 732 3 -1.11466 -6.709291681487974 -9.567623532171178 -3.2079662060890635 0 1 0
1541 386 1 1.71637987 -8.279245003126738 -11.697234642826476 13.187751875542666 -1 1 0
2697 675 1 1.71637987 -7.243916286957597 -8.759374035996625 7.947470439378017 -2 1 0
53 14 1 1.71637987 -12.117688865469852 -10.215574399875418 -5.819541540348693 0 -1 0
405 102 1 1.71637987 -6.618933916364618 -11.750054892285045 4.564397898180584 -1 1 0
3355 386 9 -1.71637987 -8.308489413490562 -11.682538298393789 13.115368583937434 -1 1 0
2699 675 2 0.55733 -7.855713708944915 -9.44296600275882 8.22103847213373 -2 1 0
408 102 3 -1.11466 -6.6634594141845485 -11.559073935817821 4.692396806337069 -1 1 0
640 160 3 -1.11466 -8.41590905896055 -11.720849377040215 10.5624306814498 3 3 0
3296 160 9 -1.71637987 -8.235130082504215 -11.665323131862309 10.356631084339114 3 3 0
1336 334 3 -1.11466 -10.88904173971566 -9.731866585434052 17.810214523987995 0 5 0
2752 688 3 -1.11466 -9.09955563146569 -8.599052093477198 15.554905340068142 4 1 0
637 160 1 1.71637987 -8.265094588207267 -11.650135544659618 10.39810320898038 3 3 0
2010 503 2 0.55733 -9.387537111803159 -9.553099006334206 6.337142095978653 0 -1 0
2011 503 2 0.55733 -10.531527544137877 -9.4412730621109 7.327261195843356 0 -1 0
2012 503 3 -1.11466 -9.821016741550737 -9.757086539522417 7.021559437768482 0 -1 0
1463 366 2 0.55733 -10.09218573302905 -11.702665373457416 7.399160371304052 -1 1 0
2939 735 2 0.55733 -11.486239496158724 -9.231497888060101 9.735711031997468 2 1 0
3875 735 9 -1.71637987 -11.972080435085527 -9.971287500457294 10.184668631935455 2 1 0
2937 735 1 1.71637987 -11.946827772380407 -9.91828766421664 10.217902869751725 2 1 0
2009 503 1 1.71637987 -9.728681069257558 -9.930729895185085 7.147545100593236 0 -1 0
3651 503 9 -1.71637987 -9.711586320930069 -9.98874070268349 7.1841087893266815 0 -1 0
2940 735 3 -1.11466 -11.913565207980696 -9.696273975654774 10.282301708622432 2 1 0
1718 430 2 0.55733 -9.879425997642402 -11.821138188293244 3.564335620314737 1 2 0
3640 510 9 -1.71637987 -6.922714609588286 -10.234892161715162 14.999335948804033 1 0 0
3225 102 9 -1.71637987 -6.5957367277927315 -11.796861474731632 4.515705363838404 -1 1 0
2698 675 2 0.55733 -6.52451854629828 -8.80995163915301 8.573201659724477 -2 1 0
1247 312 2 0.55733 -8.353354569015824 -8.575741111607691 4.540896603089539 3 0 0
1333 334 1 1.71637987 -10.730412748127987 -9.83015818446497 17.66294946695902 0 5 0
3124 28 9 -1.71637987 -11.71179497897706 -11.967626950106567 15.94645818492292 1 2 0
833 209 1 1.71637987 -9.73925975469024 -8.891768579244067 13.079296196899223 -1 1 0
835 209 2 0.55733 -9.362006105962944 -9.699972680386628 12.73333199256127 -1 1 0
112 28 3 -1.11466 -11.473404179855205 -12.001778929006255 16.12304962692997 1 2 0
3817 688 9 -1.71637987 -8.865547865891639 -8.43379979985644 15.60328720412052 4 1 0
110 28 2 0.55733 -11.050122492751498 -11.31579535872971 16.33566893780147 1 2 0
2316 579 3 -1.11466 -12.335744392513734 -10.173854424285404 -2.702000107225249 4 1 0
2037 510 1 1.71637987 -6.915868617103335 -10.139961703783085 15.019622397276684 1 0 0
834 209 2 0.55733 -10.62154542463143 -8.857308902241678 12.711255823222869 -1 1 0
109 28 1 1.71637987 -11.646757133745725 -11.965602095679392 15.97002493178672 1 2 0
2038 510 2 0.55733 -7.577377677943374 -9.506998889186848 15.292528843897548 1 0 0
1335 334 2 0.55733 -11.118124230551754 -8.958158547946772 17.602798948756064 0 5 0
2751 688 2 0.55733 -9.412210147171592 -8.956949389981203 16.239467174846972 4 1 0
639 160 2 0.55733 -8.116603987922478 -11.703014082626478 11.340892109516075 3 3 0
3508 334 9 -1.71637987 -10.693966723431213 -9.859187085778848 17.604753369624273 0 5 0
2040 510 3 -1.11466 -6.883717041565198 -9.913666035806797 15.072219559837075 1 0 0
1543 386 2 0.55733 -7.722446292730042 -11.163667777882132 13.751237456916071 -1 1 0
836 209 3 -1.11466 -9.841677797179306 -9.048555313677328 12.935553623851353 -1 1 0
2315 579 2 0.55733 -11.690165498173311 -10.1860218809127 -2.1738601067404795 4 1 0
2750 688 2 0.55733 -9.2673310305742 -8.727717171107404 14.748851512956591 4 1 0
1544 386 3 -1.11466 -8.155962374884139 -11.76778728059133 13.374661814301742 -1 1 0
3607 492 9 -1.71637987 -12.184515400877643 -8.464689734005425 6.996340435174599 4 1 0
3502 209 9 -1.71637987 -9.69784809108045 -8.850547257372074 13.14628605280904 -1 1 0
638 160 2 0.55733 -9.163124163056054 -11.952395943647375 10.27354695082423 3 3 0
2700 675 3 -1.11466 -7.222338422955243 -8.908303865149058 8.128771468055684 -2 1 0
2842 711 2 0.55733 -6.287665823661965 -10.979382138561665 -0.11795842145357605 1 1 0
1786 447 2 0.55733 -6.962286806350731 -8.757603204550287 0.31692403659014967 -3 2 0
2938 735 2 0.55733 -12.244992922729562 -9.496014618182109 11.021962809638929 2 1 0
1262 316 2 0.55733 -12.407077923261102 -11.324219890249273 19.201907930391595 3 1 0
3444 316 9 -1.71637987 -12.306492528742663 -10.737877767982841 19.947482826406514 3 1 0
10 3 2 0.55733 -9.941767951843927 -8.374047483905152 -11.985141932013756 0 -1 0
609 153 1 1.71637987 -10.076005226150572 -8.316551217040779 -13.805998278178059 -1 1 0
1965 492 1 1.71637987 -12.199907171302486 -8.383916512200997 7.036576135962011 4 1 0
3111 3 9 -1.71637987 -9.518411154552902 -8.325837397291588 -11.069216243542295 0 -1 0
1443 361 2 0.55733 -10.343598447927334 -6.581232027081945 -17.11553141921919 0 1 0
1444 361 3 -1.11466 -10.873732224004383 -6.013560261545433 -16.81362861728153 0 1 0
1441 361 1 1.71637987 -10.988992297856944 -5.891038126944929 -16.976120825897144 0 1 0
3476 361 9 -1.71637987 -11.01470637267578 -5.837604049952579 -17.002120566644344 0 1 0
1442 361 2 0.55733 -11.064886796601886 -5.812191375643986 -16.02737599449133 0 1 0
2193 549 1 1.71637987 -10.201094491932652 -5.301890623279185 -14.048204894027544 -1 0 0
3687 549 9 -1.71637987 -10.229864439547502 -5.297479515630265 -14.089693667042926 -1 0 0
2195 549 2 0.55733 -10.178858646817314 -4.920039536541757 -13.173368418679884 -1 0 0
2196 549 3 -1.11466 -10.161280870930213 -5.412582913781546 -13.845745249805402 -1 0 0
2194 549 2 0.55733 -10.028017863120997 -6.233323774104884 -13.91561314368046 -1 0 0
2936 734 3 -1.11466 -7.1871009113093685 -5.523759071568534 -17.078580504703663 4 3 0
2935 734 2 0.55733 -7.400342354118883 -4.737396024485527 -17.254892994897116 4 3 0
2934 734 2 0.55733 -7.585003274166596 -6.241375616213181 -17.229640097698528 4 3 0
2933 734 1 1.71637987 -6.98117300886095 -5.546519338169724 -16.968790230772253 4 3 0
3888 734 9 -1.71637987 -6.953891478093887 -5.5645707406842995 -16.91773419475265 4 3 0
500 125 3 -1.11466 -9.288561294829897 -8.272740878938128 -17.13668240656386 0 5 0
1644 411 3 -1.11466 -10.593987151858988 -4.682568803005305 -11.226235332952252 -2 4 0
3554 411 9 -1.71637987 -10.611465341047053 -4.699641236927893 -11.537300712447331 -2 4 0
1641 411 1 1.71637987 -10.618642103111243 -4.677863130974972 -11.460920696957801 -2 4 0
2437 610 1 1.71637987 -12.086481211059207 -6.230484627862423 14.22330304443326 0 3 0
2439 610 2 0.55733 -12.030203723192821 -7.1753642912420155 14.080575080691593 0 3 0
2440 610 3 -1.11466 -12.182451334877907 -6.355238731403033 14.05007613569808 0 3 0
1999 500 2 0.55733 -8.37860450138615 -7.916384113801754 -7.764679201763329 -1 4 0
1893 474 1 1.71637987 -10.045731678482516 -4.497578958102998 15.19472474115133 1 2 0
9 3 1 1.71637987 -9.51580427974792 -8.26779979893967 -11.135143634404233 0 -1 0
1440 360 3 -1.11466 -7.603025804118782 -5.794487032608646 15.508048819529732 2 0 0
1642 411 2 0.55733 -10.91469229210973 -5.356992641291761 -10.856331535119862 -2 4 0
1896 474 3 -1.11466 -10.20592012927491 -4.49191820094473 15.021640079802497 1 2 0
2175 544 2 0.55733 -7.60347987319413 -5.181137777226294 -10.114191016335452 2 3 0
1998 500 2 0.55733 -9.071188968725808 -6.97710770230501 -6.797610442651649 -1 4 0
1500 375 3 -1.11466 -11.954873457222531 -5.089734499347642 -6.292008590333746 0 1 0
2998 750 2 0.55733 -10.135506175578007 -6.035080856668259 -3.8599721015424633 1 3 0
1997 500 1 1.71637987 -8.602415425054705 -6.994871283747627 -7.6300031330832 -1 4 0
2174 544 2 0.55733 -7.870244071853746 -6.513754659248779 -9.442634455300029 2 3 0
2176 544 3 -1.11466 -7.699686497542462 -6.008874309307577 -10.08560320762018 2 3 0
2173 544 1 1.71637987 -7.67299523528324 -6.118514814478069 -10.291039733448338 2 3 0
3682 544 9 -1.71637987 -7.672304775809488 -6.152874381238423 -10.338869355005212 2 3 0
1498 375 2 0.55733 -11.169712276930385 -5.030170630384215 -6.016294582912335 0 1 0
3000 750 3 -1.11466 -9.721009292418074 -5.676252070104267 -4.488220110188277 1 3 0
2997 750 1 1.71637987 -9.723995477865968 -5.797567796491434 -4.690436668846019 1 3 0
3895 750 9 -1.71637987 -9.730176771685098 -5.810182838603318 -4.74433595376941 1 3 0
2999 750 2 0.55733 -9.299718860372568 -4.956006133911795 -4.520506431760226 1 3 0
3662 500 9 -1.71637987 -8.582022643534861 -6.980077162052558 -7.67208425692469 -1 4 0
2000 500 3 -1.11466 -8.651968604820881 -7.177836740201236 -7.4901703634515435 -1 4 0
203 51 2 0.55733 -12.160405262450887 -6.531565652294482 -8.279328855928144 1 0 0
1497 375 1 1.71637987 -12.042431643899668 -4.893692320168107 -6.379295674952692 0 1 0
11 3 2 0.55733 -9.019981860543352 -7.453269145647879 -11.20948328737418 0 -1 0
3479 375 9 -1.71637987 -12.033625140843894 -4.824000682353386 -6.403676652843436 0 1 0
3599 466 9 -1.71637987 -8.011505148216282 -6.200897766992462 12.507291949234535 -1 1 0
1438 360 2 0.55733 -8.135502174283344 -5.15250624017893 15.472365182876342 2 0 0
1861 466 1 1.71637987 -8.00430178417552 -6.27942157594121 12.530191764957664 -1 1 0
1863 466 2 0.55733 -8.627598501872619 -6.972327668272338 12.740417326173462 -1 1 0
3754 610 9 -1.71637987 -12.049677247841398 -6.19928328493331 14.271420954201906 0 3 0
1651 413 2 0.55733 -11.655836522871743 -5.392402713559535 19.846721624606136 2 0 0
3295 163 9 -1.71637987 -7.027695983686753 -4.260775797680986 2.574834577785893 0 2 0
3248 125 9 -1.71637987 -9.372721828059717 -7.969410932040707 -17.064117264050648 0 5 0
651 163 2 0.55733 -6.23693384467003 -4.670323458379744 2.0993973242620747 0 2 0
1791 448 2 0.55733 -11.899857941812964 -4.974583004460445 0.7656903795983441 -3 1 0
1547 387 2 0.55733 -6.251961133707109 -5.531114457803009 16.846211100142853 -1 2 0
1894 474 2 0.55733 -10.67962750493036 -5.173977254764271 14.960849472807901 1 2 0
497 125 1 1.71637987 -9.33629502710874 -8.050497241658142 -17.07795133864121 0 5 0
94 24 2 0.55733 -6.361706120603654 -5.973368566780774 -15.28956482682916 0 2 0
1785 447 1 1.71637987 -6.788846256763815 -7.831070495763941 0.4856366658667238 -3 2 0
2225 557 1 1.71637987 -10.28153504755115 -7.7942572437565225 -2.694693854906866 2 2 0
3703 557 9 -1.71637987 -10.24544377409388 -7.751940076692044 -2.6631963923468596 2 2 0
2226 557 2 0.55733 -11.212173625186301 -7.820169318804147 -2.9156489077643193 2 2 0
3588 447 9 -1.71637987 -6.8251153025994995 -7.792278542331573 0.4996487231684368 -3 2 0
1209 303 1 1.71637987 -10.55441647915001 -5.839146088784525 1.5673871895105016 -1 2 0
1212 303 3 -1.11466 -10.322910677243767 -5.827537477701016 1.5380175755503216 -1 2 0
3323 213 9 -1.71637987 -8.977965064052405 -6.04045597980595 -0.6702829626835536 3 1 0
850 213 2 0.55733 -8.251301204398239 -6.536720649808598 -0.2115258202946811 3 1 0
849 213 1 1.71637987 -8.954593423424898 -6.103575717479639 -0.6929910128250661 3 1 0
852 213 3 -1.11466 -8.87803748343462 -6.3204132619566495 -0.7186445419309293 3 1 0
936 234 3 -1.11466 -8.514859207792844 -5.728977849069176 3.9044318739575923 0 2 0
1649 413 1 1.71637987 -12.070006304362051 -5.01897355362146 19.07087454601723 2 0 0
935 234 2 0.55733 -8.179186321427407 -6.308747980783477 4.4034834945623 0 2 0
933 234 1 1.71637987 -8.739013304576112 -5.764083235818134 3.8509957448054077 0 2 0
3189 234 9 -1.71637987 -8.850948543631418 -5.77760829124752 3.8343482183582474 0 2 0
934 234 2 0.55733 -8.177510944657751 -5.045373628316976 3.564708324999528 0 2 0
851 213 2 0.55733 -9.274366495630256 -6.759039272796558 -1.3084888065133313 3 1 0
1210 303 2 0.55733 -9.888144942579602 -5.784674248660513 2.248225637891808 -1 2 0
3418 303 9 -1.71637987 -10.657522946627562 -5.849671964194393 1.545701074997802 -1 2 0
1211 303 2 0.55733 -10.065915810017374 -5.837517955073522 0.7440418912705037 -1 2 0
2228 557 3 -1.11466 -10.383738528231246 -7.912440176823858 -2.8677214305108394 2 2 0
1788 447 3 -1.11466 -6.671832608238807 -7.9749897778645735 0.3403745211544621 -3 2 0
1376 344 3 -1.11466 -6.336824490789412 -7.414420333799812 -5.006868008620289 1 2 0
2839 710 2 0.55733 -11.802679204775034 -7.032690769363043 1.4810294230602428 1 1 0
1439 360 2 0.55733 -7.690610657939461 -6.586148855339253 15.260550689302272 2 0 0
12 3 3 -1.11466 -9.50124488144737 -8.125433489369273 -11.32118647465245 0 -1 0
3488 360 9 -1.71637987 -7.272308573397477 -5.712713352712035 15.627490095974386 2 0 0
1650 413 2 0.55733 -12.113246282657222 -5.737985850167566 18.444153857997335 2 0 0
1203 301 2 0.55733 -8.751522355269072 -4.314834668410155 -1.4679585962783948 0 1 0
1864 466 3 -1.11466 -7.957734471118351 -6.49877011613027 12.591361217646563 -1 1 0
1862 466 2 0.55733 -7.143467187015624 -6.683097892605195 12.628351389455384 -1 1 0
1387 347 2 0.55733 -6.896695746676303 -4.415157716894958 6.134971841069418 0 0 0
1835 459 2 0.55733 -7.201590509418675 -7.952482497286159 6.340384810718759 1 2 0
1955 489 2 0.55733 -8.013862252329886 -4.630468406788925 12.027514684126398 1 2 0
3543 413 9 -1.71637987 -12.089059024922788 -4.942323659778695 19.05780118824644 2 0 0
1437 360 1 1.71637987 -7.396037393907919 -5.74242509260828 15.603456242044633 2 0 0
1652 413 3 -1.11466 -11.99476206735164 -5.238618064592398 19.10124137885512 2 0 0
1722 431 2 0.55733 -8.448727698816594 -6.669067553486619 8.41155581286129 -1 2 0
448 112 3 -1.11466 -10.817411851387654 -7.286660049884369 9.625909083091466 0 4 0
2639 660 2 0.55733 -11.539093532581822 -5.273868606439176 5.114231273674555 1 2 0
3804 660 9 -1.71637987 -11.34173505382891 -6.166679728022519 4.7502425195243765 1 2 0
447 112 2 0.55733 -9.9898314287371 -7.22069414394644 9.708765051461635 0 4 0
2638 660 2 0.55733 -10.393058637670407 -5.988448923332111 4.427683683620047 1 2 0
2637 660 1 1.71637987 -11.282383577983746 -6.120993106219848 4.752573725930304 1 2 0
2640 660 3 -1.11466 -11.15471148695123 -5.923905256129539 4.76035661338457 1 2 0
1721 431 1 1.71637987 -8.679617820744268 -5.927081046207154 8.971593780222287 -1 2 0
3556 431 9 -1.71637987 -8.706111303986454 -5.936977331763382 8.990009190927822 -1 2 0
1724 431 3 -1.11466 -8.487340809265756 -6.0613395252165025 8.983445953259036 -1 2 0
1723 431 2 0.55733 -7.951884076717623 -5.849443180893718 9.586375824145867 -1 2 0
1834 459 2 0.55733 -6.925497636894964 -6.497100494326638 6.015798357748052 1 2 0
649 163 1 1.71637987 -6.973295967447467 -4.226109517924578 2.516852430201176 0 2 0
3462 344 9 -1.71637987 -6.269108812679594 -7.717398132294587 -5.029318845348671 1 2 0
445 112 1 1.71637987 -10.896513967462038 -7.50542744448516 9.59921148311189 0 4 0
3592 459 9 -1.71637987 -7.438369248299657 -7.282723072322074 5.59939862378828 1 2 0
1836 459 3 -1.11466 -7.251538906562687 -7.255421247863151 5.884868727967566 1 2 0
1373 344 1 1.71637987 -6.278425295897132 -7.639358664377355 -5.037819611774632 1 2 0
3626 474 9 -1.71637987 -9.988042363828487 -4.474229314962382 15.248286652176974 1 2 0
1833 459 1 1.71637987 -7.3751391984305315 -7.274761491740742 5.689732799975286 1 2 0
1968 492 3 -1.11466 -12.19041640146903 -8.15724966931437 7.096794451479857 4 1 0
446 112 2 0.55733 -11.410705023265992 -6.701017083574067 9.623165973448051 0 4 0
3260 153 9 -1.71637987 -10.062085537080936 -8.25738125751339 -13.755313101482619 -1 1 0
3232 112 9 -1.71637987 -10.917897785370965 -7.572546818389674 9.59266609863115 0 4 0
1966 492 2 0.55733 -11.7865151024075 -7.66885820754446 6.554629291715778 4 1 0
1375 344 2 0.55733 -7.071812679367069 -7.193399958624532 -5.334511490471289 1 2 0
1946 487 2 0.55733 -7.394563519384412 -1.3409149157963023 -13.27436388753003 3 0 0
1071 268 2 0.55733 -7.994544198359989 -2.478975450501972 -18.511184740555716 1 1 0
3387 268 9 -1.71637987 -7.807802332190641 -2.725828225815755 -17.562070184234553 1 1 0
1450 363 2 0.55733 -12.17273591376112 -0.8065703187030987 -15.629465609797375 0 1 0
1945 487 1 1.71637987 -7.631590278745252 -0.42547997846780905 -13.403333256536575 3 0 0
1947 487 2 0.55733 -8.436600479304742 -0.305871913939272 -12.903922556783876 3 0 0
1948 487 3 -1.11466 -7.746453380507524 -0.5860114212602789 -13.277440832009706 3 0 0
753 189 1 1.71637987 -9.937238064351327 -0.40396193241219264 -11.95024150579092 -1 2 0
1069 268 1 1.71637987 -7.867939011250761 -2.7165301440315246 -17.59218782506212 1 1 0
3623 487 9 -1.71637987 -7.5875814248056 -0.40444121019683443 -13.401296142160938 3 0 0
386 97 2 0.55733 -10.596080856529333 -0.9739714268946863 -7.32709458567787 -1 1 0
756 189 3 -1.11466 -10.084150452218033 -0.5836091282113617 -11.915130924605819 -1 2 0
1072 268 3 -1.11466 -8.068364098645585 -2.6617042485368683 -17.700112658929662 1 1 0
319 80 2 0.55733 -7.109000799887724 -3.3645541315798946 -11.309665507154786 1 2 0
3338 189 9 -1.71637987 -9.88413476490264 -0.3410195269831928 -11.991368963064772 -1 2 0
3147 69 9 -1.71637987 -10.314249379534097 -3.0018752157664106 -16.746428122002175 0 2 0
273 69 1 1.71637987 -10.38549967479435 -3.0324617443933026 -16.716252905003138 0 2 0
1070 268 2 0.55733 -8.742159091910475 -2.6837654379664766 -17.208181258532413 1 1 0
754 189 2 0.55733 -9.792795270671505 -1.1770694328740332 -11.406008204162115 -1 2 0
1953 489 1 1.71637987 -8.201965693057629 -3.7618634281265892 11.678713050029033 1 2 0
276 69 3 -1.11466 -10.586237413512967 -3.147205243892714 -16.674802937268137 0 2 0
1745 437 1 1.71637987 -9.279111720745814 -2.983055885846092 -4.68512269935304 3 4 0
3542 410 9 -1.71637987 -11.143510282968183 -4.078883931343189 11.144122117073582 1 1 0
3321 235 9 -1.71637987 -6.828725226693533 -3.0500183998597707 -13.11788887519778 0 5 0
274 69 2 0.55733 -11.176929798544185 -2.6849689194602284 -16.31084720665861 0 2 0
2337 585 1 1.71637987 -6.299111477814908 -1.137541912051463 -16.081855460907565 1 1 0
2338 585 2 0.55733 -6.666183191089459 -1.8962581112663124 -16.536454337340185 1 1 0
1181 296 1 1.71637987 -6.877530259094759 -2.7923112897731412 17.30252841821276 0 2 0
1643 411 2 0.55733 -10.19877389524624 -4.0219980265051625 -10.903792018502363 -2 4 0