LAMMPS data file via write_data, version 29 Sep 2021, timestep = 6000000

3910 atoms
14 atom types
3109 bonds
9 bond types
2305 angles
3 angle types
768 impropers
1 improper types

-12.418372 12.418372 xlo xhi
-12.418372 12.418372 ylo yhi
-55.882675 55.882675 zlo zhi

Masses

1 15.2
2 1
3 0.001
4 15.2
5 15.2
6 22.2
7 126.2
8 34.2
9 0.8
10 0.8
11 0.8
12 0.8
13 0.8
14 0.8

PairIJ Coeffs # lj/cut/thole/long/omp

1 1 0.18985 3.18395 0.97825 2.6 12
1 2 0 1.59197 0 2.6 12
1 3 0 1.59197 0 2.6 12
1 4 0.16326 3.19381 0.96402 2.6 12
1 5 0.16326 3.19381 0.96402 2.6 12
1 6 0.13292 2.72788 0.48454 2.6 12
1 7 0.13706 4.15423 2.60182 2.6 12
1 8 0.13466 3.76133 1.89993 2.6 12
1 9 0.01055 3.18395 0.97825 2.6 12
1 10 0.00907 3.19381 0.96402 2.6 12
1 11 0.00907 3.19381 0.96402 2.6 12
1 12 0.00505 2.72788 0.48454 2.6 12
1 13 0.00091 4.15423 2.60182 2.6 12
1 14 0.00332 3.76133 1.89993 2.6 12
2 2 0 0 0 2.6 12
2 3 0 0 0 2.6 12
2 4 0 1.60183 0 2.6 12
2 5 0 1.60183 0 2.6 12
2 6 0 1.1359 0 2.6 12
2 7 0 2.56225 0 2.6 12
2 8 0 2.16935 0 2.6 12
2 9 0 1.59197 0 2.6 12
2 10 0 1.60183 0 2.6 12
2 11 0 1.60183 0 2.6 12
2 12 0 1.1359 0 2.6 12
2 13 0 2.56225 0 2.6 12
2 14 0 2.16935 0 2.6 12
3 3 0 0 0 2.6 12
3 4 0 1.60183 0 2.6 12
3 5 0 1.60183 0 2.6 12
3 6 0 1.1359 0 2.6 12
3 7 0 2.56225 0 2.6 12
3 8 0 2.16935 0 2.6 12
3 9 0 1.59197 0 2.6 12
3 10 0 1.60183 0 2.6 12
3 11 0 1.60183 0 2.6 12
3 12 0 1.1359 0 2.6 12
3 13 0 2.56225 0 2.6 12
3 14 0 2.16935 0 2.6 12
4 4 0.1404 3.20367 0.95 2.6 12
4 5 0.1404 3.20367 0.95 2.6 12
4 6 0.11431 2.73773 0.47749 2.6 12
4 7 0.11787 4.16409 2.56398 2.6 12
4 8 0.1158 3.77119 1.8723 2.6 12
4 9 0.00907 3.19381 0.96402 2.6 12
4 10 0.0078 3.20367 0.95 2.6 12
4 11 0.0078 3.20367 0.95 2.6 12
4 12 0.00434 2.73773 0.47749 2.6 12
4 13 0.00079 4.16409 2.56398 2.6 12
4 14 0.00285 3.77119 1.8723 2.6 12
5 5 0.1404 3.20367 0.95 2.6 12
5 6 0.11431 2.73773 0.47749 2.6 12
5 7 0.11787 4.16409 2.56398 2.6 12
5 8 0.1158 3.77119 1.8723 2.6 12
5 9 0.00907 3.19381 0.96402 2.6 12
5 10 0.0078 3.20367 0.95 2.6 12
5 11 0.0078 3.20367 0.95 2.6 12
5 12 0.00434 2.73773 0.47749 2.6 12
5 13 0.00079 4.16409 2.56398 2.6 12
5 14 0.00285 3.77119 1.8723 2.6 12
6 6 0.09304 2.2718 0.24 2.6 12
6 7 0.09589 3.69815 1.28872 2.6 12
6 8 0.09424 3.30525 0.94106 2.6 12
6 9 0.00726 2.72788 0.48454 2.6 12
6 10 0.00624 2.73773 0.47749 2.6 12
6 11 0.00624 2.73773 0.47749 2.6 12
6 12 0.00348 2.2718 0.24 2.6 12
6 13 0.00063 3.69815 1.28872 2.6 12
6 14 0.00229 3.30525 0.94106 2.6 12
7 7 0.09874 5.1245 6.92 2.6 12
7 8 0.09708 4.7316 5.0532 2.6 12
7 9 0.00726 4.15423 2.60182 2.6 12
7 10 0.00624 4.16409 2.56398 2.6 12
7 11 0.00624 4.16409 2.56398 2.6 12
7 12 0.00348 3.69815 1.28872 2.6 12
7 13 0.00063 5.1245 6.92 2.6 12
7 14 0.00229 4.7316 5.0532 2.6 12
8 8 0.09543 4.3387 3.69 2.6 12
8 9 0.00726 3.76133 1.89993 2.6 12
8 10 0.00624 3.77119 1.8723 2.6 12
8 11 0.00624 3.77119 1.8723 2.6 12
8 12 0.00348 3.30525 0.94106 2.6 12
8 13 0.00063 4.7316 5.0532 2.6 12
8 14 0.00229 4.3387 3.69 2.6 12
9 9 0 3.18395 0.97825 2.6 12
9 10 0 3.19381 0.96402 2.6 12
9 11 0 3.19381 0.96402 2.6 12
9 12 0 2.72788 0.48454 2.6 12
9 13 0 4.15423 2.60182 2.6 12
9 14 0 3.76133 1.89993 2.6 12
10 10 0 3.20367 0.95 2.6 12
10 11 0 3.20367 0.95 2.6 12
10 12 0 2.73773 0.47749 2.6 12
10 13 0 4.16409 2.56398 2.6 12
10 14 0 3.77119 1.8723 2.6 12
11 11 0 3.20367 0.95 2.6 12
11 12 0 2.73773 0.47749 2.6 12
11 13 0 4.16409 2.56398 2.6 12
11 14 0 3.77119 1.8723 2.6 12
12 12 0 2.2718 0.24 2.6 12
12 13 0 3.69815 1.28872 2.6 12
12 14 0 3.30525 0.94106 2.6 12
13 13 0 5.1245 6.92 2.6 12
13 14 0 4.7316 5.0532 2.6 12
14 14 0 4.3387 3.69 2.6 12

Bond Coeffs # harmonic/omp

1 10000 0.9572
2 10000 0.24034
3 10000 1.278
4 500 0
5 500 0
6 500 0
7 500 0
8 500 0
9 500 0

Angle Coeffs # harmonic/omp

1 10000 104.52
2 10000 52.26
3 10000 116.8

Improper Coeffs # harmonic/omp

1 10000 0

Atoms # full

1242 311 2 0.55733 -7.852932726887978 -9.86377560550361 -16.01751556354413 1 0 0
3800 683 9 -1.71637987 -11.301882902896391 -10.619259448968668 -14.682635297140285 1 0 0
2729 683 1 1.71637987 -11.259236321886018 -10.645966877432452 -14.700471393589671 1 0 0
2732 683 3 -1.11466 -11.107188938409436 -10.816241560677488 -14.754668934218849 1 0 0
2731 683 2 0.55733 -10.756408012693674 -11.192936286731994 -14.097789757747854 1 0 0
951 238 2 0.55733 -8.965324749604026 -10.656431293530256 -13.177400937001998 1 0 0
1931 483 2 0.55733 -8.90021208929147 -12.038730965199356 9.58556859018792 0 0 0
952 238 3 -1.11466 -9.128546148746183 -11.413184738568695 -12.865475961681474 1 0 0
3352 238 9 -1.71637987 -9.115341490476876 -11.633520698317453 -13.083055396030492 1 0 0
778 195 2 0.55733 -11.639933543699346 -9.9318431446694 0.269691452686238 1 0 0
2019 505 2 0.55733 -11.852524725325445 -8.749334413522991 -13.757239318739874 3 -1 0
950 238 2 0.55733 -9.372927827714477 -11.643765545310787 -12.10030547626116 1 0 0
949 238 1 1.71637987 -9.099729728941343 -11.589380373274139 -13.015581132314322 1 0 0
3336 259 9 -1.71637987 -9.983922218099902 -9.112696782484948 -10.613209755352889 -2 1 0
1131 283 2 0.55733 -11.765549456162486 -9.212988299419253 18.265119099441907 -1 2 0
1215 304 2 0.55733 -6.500014320126089 -11.109282899709825 14.007597694845261 1 3 0
3443 311 9 -1.71637987 -7.123019753091205 -10.5056100536114 -16.245163749593832 1 0 0
3815 674 9 -1.71637987 -7.484080358701084 -8.632453741417496 -4.90100379058713 3 3 0
1213 304 1 1.71637987 -7.200317960672195 -10.487009742573617 14.20311904508121 1 3 0
3587 474 9 -1.71637987 -8.845597931585164 -8.492450028139434 -15.790505282657298 1 -2 0
2730 683 2 0.55733 -11.002067476689351 -10.942986693478174 -15.572892916514881 1 0 0
3818 697 9 -1.71637987 -9.138521656506951 -8.666613869074647 -12.989866010093595 2 0 0
2338 585 2 0.55733 -11.580407219755868 -12.21412914722636 -2.5521925211224605 3 -1 0
1930 483 2 0.55733 -9.997813466617634 -11.760018331523083 10.592777461124198 0 0 0
1241 311 1 1.71637987 -7.13828442028893 -10.454124812196005 -16.252063935323303 1 0 0
1243 311 2 0.55733 -6.620547043271857 -9.972062858378093 -16.893413220788496 1 0 0
2339 585 2 0.55733 -10.77247681589166 -11.11293148292634 -3.208570996114309 3 -1 0
1244 311 3 -1.11466 -7.1786355740098395 -10.238620703633515 -16.334367327474176 1 0 0
780 195 3 -1.11466 -12.303707491452437 -10.230075644673276 -0.1387737235772362 1 0 0
3627 528 9 -1.71637987 -8.448613508743277 -8.434148659384752 -8.185483464540587 -1 0 0
1655 414 2 0.55733 -7.874882088485384 -11.997917117582418 -17.326231495014984 1 0 0
1033 259 1 1.71637987 -9.979609263076828 -9.175081692554519 -10.515987067508416 -2 1 0
1036 259 3 -1.11466 -9.895809603868393 -9.312148790533474 -10.346023580871273 -2 1 0
1034 259 2 0.55733 -10.134501737958278 -10.110837469761872 -10.390986840066756 -2 1 0
830 208 2 0.55733 -10.926294036423855 -8.545249118544831 -7.241206063770893 1 0 0
1035 259 2 0.55733 -9.4124781890042 -8.920880016710237 -9.78979101027342 -2 1 0
829 208 1 1.71637987 -11.615799824780103 -9.021733849666491 -7.70191610272925 1 0 0
142 36 2 0.55733 -10.378189472973723 -9.600132972634011 -4.8224265916336755 2 2 0
3288 187 9 -1.71637987 -7.784300505760481 -11.115335756564226 -8.020449931261519 -1 2 0
1018 255 2 0.55733 -7.778917459968847 -10.63070881527488 -4.93986184647042 1 0 0
3877 723 9 -1.71637987 -10.213731775942355 -12.066473227662655 -10.56712828874206 2 0 0
1017 255 1 1.71637987 -8.126165561869911 -11.405310563898436 -5.380013294570523 1 0 0
748 187 3 -1.11466 -7.660481091735338 -10.837367909542541 -7.995216676079151 -1 2 0
144 36 3 -1.11466 -10.472354697453838 -10.378348980215323 -5.1092141168838845 2 2 0
3389 255 9 -1.71637987 -8.206166406861874 -11.445353588756516 -5.338587646637676 1 0 0
1019 255 2 0.55733 -8.071957372605327 -11.201850186386539 -6.312947634325006 1 0 0
1020 255 3 -1.11466 -8.045343143410918 -11.20817079459671 -5.4791291304061 1 0 0
747 187 2 0.55733 -8.240954770359412 -10.238028692404004 -8.031931574321879 -1 2 0
2889 723 1 1.71637987 -10.267316210162425 -12.10186417841887 -10.511207076226095 2 0 0
745 187 1 1.71637987 -7.734382171973946 -11.04947433092658 -8.05783803654966 -1 2 0
746 187 2 0.55733 -6.857586061228403 -10.80036401598966 -7.7674168140668005 -1 2 0
3261 36 9 -1.71637987 -10.75924987624601 -10.44870957418139 -5.096020680421828 2 2 0
143 36 2 0.55733 -9.90551049271404 -10.930115566268775 -5.3757346335121365 2 2 0
141 36 1 1.71637987 -10.69585697720028 -10.455012297521025 -5.113481297571604 2 2 0
832 208 3 -1.11466 -11.513105006585885 -9.078474316340555 -7.497559780234775 1 0 0
1488 372 3 -1.11466 -12.227746316184795 -10.225450050008886 3.242822539319489 3 1 0
2075 519 2 0.55733 -6.390664124582747 -11.172264398492434 11.104801855626526 1 4 0
3339 208 9 -1.71637987 -11.657746039135834 -8.976421515380306 -7.725026214069869 1 0 0
525 132 1 1.71637987 -6.374828810411931 -10.639387451703032 -11.610513486841523 -1 2 0
479 120 2 0.55733 -7.60449831667853 -9.549756013551416 19.892655094561565 -1 1 0
480 120 3 -1.11466 -7.612479170666359 -9.24729513955058 19.11500889679191 -1 1 0
704 176 3 -1.11466 -8.73798462180939 -12.3701506107387 6.974446655280631 0 -3 0
2694 674 2 0.55733 -7.4225805626452255 -8.746654031737723 -3.9205495744810914 3 3 0
1214 304 2 0.55733 -6.8734574196805385 -9.979204976354051 14.947155997100635 1 3 0
1216 304 3 -1.11466 -6.992814771377744 -10.509449556836486 14.313707371710665 1 3 0
2696 674 3 -1.11466 -7.662131833219364 -8.553653337037188 -4.69626229219104 3 3 0
1487 372 2 0.55733 -12.009863799789347 -11.018282988836264 3.097130609479228 3 1 0
1545 387 1 1.71637987 -9.706198983919283 -8.471369238540868 4.241521625009608 2 -1 0
3483 372 9 -1.71637987 -12.0203754870418 -10.066197298495844 3.408252905258008 3 1 0
1485 372 1 1.71637987 -12.071094453262935 -10.102051420514048 3.361236316691411 3 1 0
178 45 2 0.55733 -7.067953844511747 -10.547399041669761 -1.9723845452132163 2 0 0
2868 717 3 -1.11466 -7.617957818463123 -9.217174250278186 2.6596832221282756 -1 0 0
3834 717 9 -1.71637987 -7.6501137588840695 -9.104096260802855 2.3879205566530244 -1 0 0
2865 717 1 1.71637987 -7.650854940490065 -9.123571258945883 2.448795673299073 -1 0 0
1914 479 2 0.55733 -8.785149228750285 -9.678107240675683 1.0060892345119097 1 0 0
1915 479 2 0.55733 -9.314482898686306 -9.110916358940683 -0.2959536455734758 1 0 0
3611 479 9 -1.71637987 -9.465782009967073 -9.874950383397156 0.3238136453651179 1 0 0
61 16 1 1.71637987 -6.561035782067867 -8.418108067628868 16.096449596865387 2 3 0
43 11 2 0.55733 -8.949143182586921 -11.943342116069411 1.1073426292943442 1 0 0
1916 479 3 -1.11466 -9.279259107917296 -9.656126749872243 0.3344274851113468 1 0 0
2786 697 2 0.55733 -9.459098076552308 -8.843315240324213 -12.038361737365427 2 0 0
179 45 2 0.55733 -8.44385250775156 -10.965305784301169 -2.4540716937233005 2 0 0
1913 479 1 1.71637987 -9.433969281005428 -9.831521065194986 0.3212154069570224 1 0 0
2340 585 3 -1.11466 -11.193707024355122 -11.476574293327825 -2.5868089548620965 3 -1 0
3711 585 9 -1.71637987 -11.226457231747956 -11.326727479585607 -2.360602487540485 3 -1 0
831 208 2 0.55733 -11.795829890468646 -9.783056675783742 -7.151968728735242 1 0 0
2337 585 1 1.71637987 -11.207811135048347 -11.350955360329777 -2.3905121625225676 3 -1 0
3167 45 9 -1.71637987 -7.783766335073378 -10.223055442532795 -2.5791878767529246 2 0 0
180 45 3 -1.11466 -7.780067184315286 -10.461614337602878 -2.399585541221836 2 0 0
177 45 1 1.71637987 -7.79541655062816 -10.266593138447984 -2.523898784952442 2 0 0
2866 717 2 0.55733 -8.106772675305312 -8.903014021929772 3.2585223228052236 -1 0 0
2867 717 2 0.55733 -7.032519213966667 -9.810286865425955 2.6930239837834296 -1 0 0
3516 387 9 -1.71637987 -9.635374283353475 -8.455146758404334 4.201865203988119 2 -1 0
1893 474 1 1.71637987 -8.927661382018734 -8.439252079024103 -15.750023358568615 1 -2 0
3424 304 9 -1.71637987 -7.248069426011589 -10.484543957497662 14.1871532601219 1 3 0
1894 474 2 0.55733 -9.116276479663842 -8.654984510065823 -14.836870926622495 1 -2 0
3372 283 9 -1.71637987 -11.569237770170933 -10.189206517573142 18.236776080848422 -1 2 0
2494 624 2 0.55733 -6.371109112456155 -9.344425817799825 6.9649662846021885 2 -2 0
2620 655 3 -1.11466 -11.93850420754701 -10.647756467367692 6.5314953086072665 1 -3 0
701 176 1 1.71637987 -8.69757942307186 -12.277067401211786 7.1881553865609655 0 -3 0
3137 16 9 -1.71637987 -6.600604870551533 -8.464310448156644 16.050350573545497 2 3 0
3204 84 9 -1.71637987 -11.074847726270994 -9.32684112264093 8.985319545059077 2 2 0
2109 528 1 1.71637987 -8.426066868318266 -8.361943281385695 -8.138942362693639 -1 0 0
336 84 3 -1.11466 -10.989381881219924 -9.654409867999737 8.97185602369799 2 2 0
1321 331 1 1.71637987 -8.280222850163597 -9.364090367112725 7.7117499604429955 2 -1 0
1324 331 3 -1.11466 -8.483670660016077 -9.433171055471973 7.61829508570948 2 -1 0
334 84 2 0.55733 -11.330960522177476 -10.065592154022683 8.333213409823593 2 2 0
1322 331 2 0.55733 -8.577198665882008 -10.25968254904952 7.561549343954743 2 -1 0
3444 331 9 -1.71637987 -8.233583759044016 -9.330696441776936 7.711358427988836 2 -1 0
335 84 2 0.55733 -10.463473387906355 -9.91065159736104 9.566149839610132 2 2 0
3630 483 9 -1.71637987 -9.413880251498531 -11.242292032536794 9.993260392994948 0 0 0
1929 483 1 1.71637987 -9.412360231045842 -11.33010128900946 9.970009808510145 0 0 0
1932 483 3 -1.11466 -9.427176871618586 -11.558504156434928 10.018034053147423 0 0 0
333 84 1 1.71637987 -11.050069871595676 -9.42618941818485 8.987115188981758 2 2 0
3287 176 9 -1.71637987 -8.694470157671367 -12.24543559907284 7.199392995226644 0 -3 0
1323 331 2 0.55733 -8.991539866215186 -8.811919077619892 7.3917021275690935 2 -1 0
2619 655 2 0.55733 -11.890459982308958 -10.093003428644446 5.910373926397613 1 -3 0
1547 387 2 0.55733 -10.38768731677259 -9.137186701177665 4.30807538605667 2 -1 0
2693 674 1 1.71637987 -7.510512804703531 -8.616708510866596 -4.864697036314615 3 3 0
3757 655 9 -1.71637987 -11.673294766514216 -10.710461085013097 6.663364194906931 1 -3 0
2617 655 1 1.71637987 -11.731408504045408 -10.706992028850738 6.625585790291505 1 -3 0
478 120 2 0.55733 -7.7635548958346865 -8.474415380032777 18.835565674172976 -1 1 0
1548 387 3 -1.11466 -9.874717853859117 -8.487908632946695 4.40373103809539 2 -1 0
279 70 2 0.55733 -11.945798009888634 -12.27845009053647 18.941237710337038 2 2 0
2785 697 1 1.71637987 -9.127097798699818 -8.636669314831755 -12.908885340619854 2 0 0
477 120 1 1.71637987 -7.56595308033579 -9.404038993171632 18.947594035028335 -1 1 0
1614 404 2 0.55733 -6.970710652895482 -12.154276142880773 16.748928127384143 -3 3 0
3011 753 2 0.55733 -7.138043357657171 -12.069285549696819 4.105093493114938 2 1 0
1129 283 1 1.71637987 -11.547337451055043 -10.143602978061372 18.23388682888671 -1 2 0
638 160 2 0.55733 -8.969025573353557 -12.16922123382296 19.505401938250657 -1 0 0
3501 377 9 -1.71637987 -9.369198820148197 -8.51012399691313 15.3272937955645 -2 0 0
1132 283 3 -1.11466 -11.417433849846788 -9.96312237921509 18.159239515940445 -1 2 0
779 195 2 0.55733 -12.35268899144613 -10.677556362402289 -0.8421655031406893 1 0 0
1507 377 2 0.55733 -8.422125263823135 -8.359201087071913 15.082406276985562 -2 0 0
1535 384 2 0.55733 -8.527336487423462 -10.927175234564613 15.882454717896296 0 1 0
702 176 2 0.55733 -9.497951306656827 -12.219571522311847 6.665965092541314 0 -3 0
3058 765 2 0.55733 -8.453049075664463 -10.07468824802647 11.0320609837424 2 0 0
3515 384 9 -1.71637987 -8.616453413069678 -11.203482543861512 16.8250541672886 0 1 0
3059 765 2 0.55733 -7.9221414941522035 -9.520754646373897 12.338726705054066 2 0 0
3788 677 9 -1.71637987 -11.421781649462698 -10.4558811668458 14.073929109004958 4 1 0
3892 765 9 -1.71637987 -7.97569715633856 -9.261874838368733 11.381610072916978 2 0 0
3057 765 1 1.71637987 -7.997516071363084 -9.323687109502213 11.406971257684145 2 0 0
1130 283 2 0.55733 -10.683162795776685 -10.180082047549126 17.83043320762903 -1 2 0
2706 677 2 0.55733 -10.887284272171367 -11.250847586884307 13.800568992346921 4 1 0
3060 765 3 -1.11466 -8.073692220759863 -9.513746990978126 11.518263102908548 2 0 0
1505 377 1 1.71637987 -9.348022162656443 -8.469213026997563 15.306381323838309 -2 0 0
2705 677 1 1.71637987 -11.351229797784027 -10.456813403686834 14.065852813837198 4 1 0
1536 384 3 -1.11466 -8.540346045469585 -10.966195714813635 16.715723100665095 0 1 0
2708 677 3 -1.11466 -11.118062130788072 -10.495323498684419 14.069853478553748 4 1 0
1534 384 2 0.55733 -8.308930110846159 -10.405222462847421 17.28920176837775 0 1 0
2788 697 3 -1.11466 -9.015699800032571 -8.609747135909902 -12.703502538852051 2 0 0
2707 677 2 0.55733 -10.662101812164677 -9.85455855160859 14.34604175510059 4 1 0
1533 384 1 1.71637987 -8.62085584433917 -11.167968197186603 16.80358894288655 0 1 0
3225 120 9 -1.71637987 -7.5784362832343595 -9.44821571578683 18.92781560298262 -1 1 0
3256 132 9 -1.71637987 -6.3754205412273235 -10.664543224420354 -11.57941027778934 -1 2 0
2892 723 3 -1.11466 -10.369603450461968 -12.235546941024793 -10.3495987026972 2 0 0
2787 697 2 0.55733 -8.241156080905675 -8.304681566462515 -12.761543679785252 2 0 0
3003 751 2 0.55733 -6.599078657720222 -8.34463682727318 10.84204267866655 -2 0 0
2646 662 2 0.55733 -12.14799423187456 -8.303729886616848 11.84105014343889 1 0 0
1896 474 3 -1.11466 -9.077343461890768 -8.33021618087067 -15.604444277629884 1 -2 0
2891 723 2 0.55733 -9.898796592422961 -12.386875087607802 -9.676663868775252 2 0 0
2278 570 2 0.55733 -7.986492284907364 -8.13988818805144 -17.584459048402746 2 0 0
2277 570 1 1.71637987 -7.449238132381353 -7.6248245510022 -18.185534124848655 2 0 0
3704 570 9 -1.71637987 -7.44106124783679 -7.582296605834608 -18.176063996819302 2 0 0
2280 570 3 -1.11466 -7.404738715689397 -7.838414602966128 -18.101786492408845 2 0 0
484 121 3 -1.11466 -12.110979654279493 -5.706222829713505 3.3025459936457606 -1 -1 0
2194 549 2 0.55733 -9.48451297927231 -5.613823044586812 -17.322294033287122 4 1 0
391 98 2 0.55733 -6.765622188453571 -5.8896814783510685 -17.544345611771913 3 0 0
797 200 1 1.71637987 -6.589681562763767 -5.895962772708752 -8.514846335116003 3 0 0
1579 395 2 0.55733 -11.512561262387417 -5.520765209551932 -13.941418976547013 1 1 0
1580 395 3 -1.11466 -10.678283807184181 -5.503247638830304 -13.957828947281705 1 1 0
3520 395 9 -1.71637987 -10.581388097868773 -5.492871193253773 -14.245036467762542 1 1 0
1577 395 1 1.71637987 -10.58352709798479 -5.523539181780227 -14.171725153566843 1 1 0
1578 395 2 0.55733 -10.12508534889238 -5.42255443222277 -13.33890998101025 1 1 0
2196 549 3 -1.11466 -9.965447191297974 -6.035912697918768 -16.787958986588464 4 1 0
2193 549 1 1.71637987 -10.043709795651836 -6.242101514655127 -16.867990283652233 4 1 0
3667 549 9 -1.71637987 -10.03909949557863 -6.291110756042192 -16.846328710462085 4 1 0
2908 727 3 -1.11466 -6.274281005072806 -7.178511786323673 -11.96556676205325 2 -1 0
2195 549 2 0.55733 -10.217898671815488 -5.844777861967553 -16.016122139149 4 1 0
3879 727 9 -1.71637987 -6.491460467162471 -7.242688767576362 -12.14313737247429 2 -1 0
2905 727 1 1.71637987 -6.45408786573157 -7.222100540280815 -12.108684719799063 2 -1 0
62 16 2 0.55733 -7.1298013176765584 -8.075408971941588 16.783599313854126 2 3 0
2907 727 2 0.55733 -6.4061102596478285 -6.563826815984817 -11.416134204185632 2 -1 0
64 16 3 -1.11466 -6.512335230944125 -8.246384785047214 16.24848858497551 2 3 0
735 184 2 0.55733 -11.294880063396038 -7.200125454819021 16.760752956259786 0 -1 0
2111 528 2 0.55733 -8.848103798920022 -8.010282830011501 -7.356399480476543 -1 0 0
157 40 1 1.71637987 -11.555470267894648 -6.888704509046295 -11.303278542802767 1 -1 0
160 40 3 -1.11466 -11.338203093062486 -6.849542706406298 -11.225112167169211 1 -1 0
159 40 2 0.55733 -11.138908268994841 -6.043304779893623 -11.144805969361256 1 -1 0
25 7 1 1.71637987 -9.426185235134225 -4.752299863211711 -5.717276966778366 -2 -1 0
2747 687 2 0.55733 -6.238715602224154 -6.4868765805654425 1.3886797715128987 2 2 0
1895 474 2 0.55733 -9.479908642834738 -7.682545735995568 -15.941270785550246 1 -2 0
2110 528 2 0.55733 -8.05897832338751 -7.599395827898452 -8.583356892236605 -1 0 0
3302 200 9 -1.71637987 -6.541924702984991 -5.923679098071687 -8.57025071276785 3 0 0
1649 413 1 1.71637987 -11.829664671222632 -6.848201262665133 9.171225028511914 1 0 0
3766 616 9 -1.71637987 -6.224012096827517 -5.082920034560545 11.618752457654853 2 0 0
353 89 1 1.71637987 -9.050508861229703 -4.581797561397147 6.166232199662354 2 0 0
2345 587 1 1.71637987 -6.459349159239925 -6.050389221429201 -5.87922307106571 0 0 0
1898 475 2 0.55733 -11.867054974536794 -6.5007713293098455 5.999190196403891 0 0 0
743 186 2 0.55733 -10.230391644133759 -6.839523612728176 11.706064107976303 -2 -1 0
1381 346 1 1.71637987 -9.84435147300555 -4.443574186910813 -11.431560658857961 -1 -1 0
3467 346 9 -1.71637987 -9.862316273511995 -4.48520503118619 -11.477860955011659 -1 -1 0
2436 609 3 -1.11466 -9.881820034894709 -7.132554612092799 -5.952293716436207 1 0 0
800 200 3 -1.11466 -6.710370305628958 -5.779032459482584 -8.349621660917762 3 0 0
483 121 2 0.55733 -12.122486868062483 -5.897211331457219 4.115135432625674 -1 -1 0
3719 609 9 -1.71637987 -9.685193069291929 -7.3938810313993075 -6.119646040348632 1 0 0
2434 609 2 0.55733 -10.387765032202577 -7.4310100078516585 -5.360526302373353 1 0 0
2433 609 1 1.71637987 -9.748202594726658 -7.296917512965269 -6.059664593194101 1 0 0
2435 609 2 0.55733 -9.764995157896836 -6.355063674201973 -6.226802169963298 1 0 0
798 200 2 0.55733 -7.372058588657626 -5.356619913154261 -8.633554282255375 3 0 0
2347 587 2 0.55733 -6.751176311536138 -6.920830726089825 -5.609509583163846 0 0 0
2917 730 1 1.71637987 -11.607556446848813 -6.987247930332582 -4.177523879264118 2 1 0
1384 346 3 -1.11466 -9.836513448074474 -4.27324957240338 -11.272814961286794 -1 -1 0
3908 730 9 -1.71637987 -11.555505847148064 -7.041202648346091 -4.2295530621639275 2 1 0
1383 346 2 0.55733 -9.265868590892632 -4.379555192325084 -10.673477486236786 -1 -1 0
3132 40 9 -1.71637987 -11.614768535298394 -6.904159984870995 -11.34499584400191 1 -1 0
2919 730 2 0.55733 -11.431573145321593 -6.183628121979067 -3.687059993941327 2 1 0
744 186 3 -1.11466 -10.110166010896714 -7.6355729190747 11.924626958658575 -2 -1 0
3232 98 9 -1.71637987 -6.457811304551504 -4.9707522842567915 -17.363579942081916 3 0 0
2920 730 3 -1.11466 -11.740295090414357 -6.794278702017678 -4.166190430768252 2 1 0
158 40 2 0.55733 -10.891352448028794 -7.5363844896545 -11.068845376491302 1 -1 0
733 184 1 1.71637987 -11.797581838080088 -7.126654508946917 17.570992047378542 0 -1 0
742 186 2 0.55733 -9.510107176354206 -8.173749927596779 11.7127182588461 -2 -1 0
1935 484 2 0.55733 -9.208169676735992 -5.597280015789391 10.041084691459806 -2 0 0
2018 505 2 0.55733 -12.272449869347328 -7.647834828663179 -12.805307928625169 3 -1 0
3539 413 9 -1.71637987 -11.803417197950566 -6.776776939584386 9.136441986425393 1 0 0
2020 505 3 -1.11466 -12.376187532476955 -8.188075406589874 -13.43102666159413 3 -1 0
3112 7 9 -1.71637987 -9.451060271122348 -4.812425321506002 -5.736375966109983 -2 -1 0
1933 484 1 1.71637987 -9.733538224697874 -5.14527982536707 10.700701351576782 -2 0 0
3678 798 14 -3.45723606 -6.8904598449296985 -4.376992934028287 15.544693732164069 1 1 0
114 29 2 0.55733 -10.981245071673984 -5.657557912795385 14.35344576329913 -1 0 0
799 200 2 0.55733 -6.410658238534616 -5.861408370013831 -7.5748984945604425 3 0 0
3209 121 9 -1.71637987 -11.81310357801013 -5.565064670508367 3.198800386703485 -1 -1 0
3104 798 8 2.45723606 -6.881376854614968 -4.505911590001347 15.517707202533261 1 1 0
481 121 1 1.71637987 -11.913980452438892 -5.602002551488057 3.230063374237591 -1 -1 0
1506 377 2 0.55733 -9.729817223481673 -7.599553619021111 15.198252467522032 -2 0 0
1227 307 2 0.55733 -8.368317785408161 -5.631058316124513 1.5774336688248556 -1 3 0
2816 704 3 -1.11466 -11.823832929921732 -4.752182296526199 -2.079737955320085 0 3 0
1228 307 3 -1.11466 -7.770257726890506 -5.163785049828355 1.2309223316763434 -1 3 0
2813 704 1 1.71637987 -11.760357446835203 -4.962305220582558 -2.165894009649544 0 3 0
1912 478 3 -1.11466 -11.36513085645299 -4.407629153360068 12.743505860864383 0 0 0
2547 637 2 0.55733 -10.612545194882442 -6.21286843004908 2.181157138702265 1 1 0
2548 637 3 -1.11466 -9.87935980293705 -6.605522583846618 2.113315640712643 1 1 0
2545 637 1 1.71637987 -9.738100489154954 -6.517906307712732 1.9482128264819911 1 1 0
3746 637 9 -1.71637987 -9.663566467029495 -6.475127631518342 1.8894902110325906 1 1 0
3685 584 9 -1.71637987 -9.344597921346258 -6.694416659621109 -1.0216921338407534 1 3 0
2333 584 1 1.71637987 -9.387640025472253 -6.6890291672613 -0.9917068516588734 1 3 0
2336 584 3 -1.11466 -9.567571684650316 -6.576552856202589 -0.88910409947771 1 3 0
2335 584 2 0.55733 -10.09618039821716 -6.215895336043552 -1.4227693080936499 1 3 0
2334 584 2 0.55733 -9.56914341001828 -6.602546405807615 -0.055630185158728085 1 3 0
2546 637 2 0.55733 -9.568316202111637 -7.251821430476013 2.540099443246765 1 1 0
3836 704 9 -1.71637987 -11.717572782623337 -5.019032157882168 -2.197301369897745 0 3 0
670 168 2 0.55733 -7.825438438925264 -5.841227272421649 -2.0269084526096575 -2 -1 0
1934 484 2 0.55733 -10.271986969917505 -4.529551971490698 10.204916244957797 -2 0 0
672 168 3 -1.11466 -7.076541087436301 -5.691820894432993 -2.3576373760146674 -2 -1 0
669 168 1 1.71637987 -7.029223546900765 -5.4631301158417065 -2.393057299466591 -2 -1 0
3452 307 9 -1.71637987 -7.475830856520554 -5.263480248630731 1.29356178656135 -1 3 0
3268 168 9 -1.71637987 -7.007112914009378 -5.36546982309922 -2.3933628027607585 -2 -1 0
671 168 2 0.55733 -6.467756329008852 -6.212989289151349 -2.5857797170535157 -2 -1 0
1225 307 1 1.71637987 -7.552586893919447 -5.246161912958342 1.2601002816947997 -1 3 0
27 7 2 0.55733 -8.492622357415257 -4.681382374819774 -5.9132104857189045 -2 -1 0
115 29 2 0.55733 -10.25215360897197 -5.428070118264598 15.662333348409206 -1 0 0
389 98 1 1.71637987 -6.436002225923475 -5.0119939018814685 -17.36358083099597 3 0 0
1909 478 1 1.71637987 -11.377260749194871 -4.543921003664182 12.931624428557246 0 0 0
741 186 1 1.71637987 -10.271343765697159 -7.723072989761809 12.070112134796826 -2 -1 0
3293 186 9 -1.71637987 -10.314382960113866 -7.7497329475897585 12.083821651267426 -2 -1 0
149 38 1 1.71637987 -11.183585855553407 -4.316059056359668 8.53113606501086 1 0 0
150 38 2 0.55733 -10.576200986781322 -4.26748120813872 7.794990234940472 1 0 0
3599 478 9 -1.71637987 -11.3892870134959 -4.574132993474749 13.008720702839772 0 0 0
3593 587 9 -1.71637987 -6.488596554953695 -6.0218738032599815 -5.970323763627443 0 0 0
151 38 2 0.55733 -11.364014257455004 -5.24769365996064 8.641350530031877 1 0 0
1631 408 2 0.55733 -8.00347473744065 -6.058093189875028 17.431408431733733 4 2 0
3054 764 2 0.55733 -6.776353141828238 -7.625858710648691 -15.623796897711047 -1 2 0
2463 616 2 0.55733 -7.140752106556644 -5.028640485489934 12.09064618704128 2 0 0
1651 413 2 0.55733 -11.75001040457476 -7.801955347098543 9.203145982707644 1 0 0
767 192 2 0.55733 -10.296372530171311 -7.399451639253125 7.658722152022435 3 1 0
765 192 1 1.71637987 -10.224542998636093 -7.0521013911085895 6.7695713257668535 3 1 0
3743 675 9 -1.71637987 -8.752427804495975 -4.418587305267 -8.842491311445475 1 1 0
2279 570 2 0.55733 -6.69084609782969 -8.177412837291966 -18.371633032609335 2 0 0
766 192 2 0.55733 -9.612415752910794 -6.321983155420518 6.840646390802468 3 1 0
79 20 2 0.55733 -7.9247718824666125 -6.277809616073906 5.5322506645568055 0 1 0
3544 416 9 -1.71637987 -8.342114912389256 -6.70825962763068 9.183958581322933 4 -1 0
80 20 3 -1.11466 -7.417151252000654 -6.920945046546005 5.375732979290401 0 1 0
78 20 2 0.55733 -7.582284917313781 -7.73467744775046 5.29039363286417 0 1 0
1663 416 2 0.55733 -7.4671567470500095 -6.702821430330404 8.65260570361266 4 -1 0
1661 416 1 1.71637987 -8.284761108417705 -6.744357070918668 9.144584324535765 4 -1 0
1664 416 3 -1.11466 -8.143569169644026 -6.922239263998961 9.087909024079584 4 -1 0
77 20 1 1.71637987 -7.191539691041695 -6.862427847194462 5.351646042234317 0 1 0
3128 20 9 -1.71637987 -7.130997505128629 -6.861189884730156 5.345257139535765 0 1 0
113 29 1 1.71637987 -10.681552883687665 -6.1074136932564995 15.142177027683022 -1 0 0
3197 89 9 -1.71637987 -9.063152298703416 -4.6580294135295786 6.187244954792942 2 0 0
3306 192 9 -1.71637987 -10.245768800552156 -7.0830066280519 6.695273712666803 3 1 0
768 192 3 -1.11466 -10.11677128158188 -6.975561484302805 6.962572434988394 3 1 0
1936 484 3 -1.11466 -9.735406602415294 -5.111851059651642 10.467926188843563 -2 0 0
1546 387 2 0.55733 -9.861906329897563 -7.884558532407786 4.978680140924086 2 -1 0
152 38 3 -1.11466 -11.097325684935154 -4.492903378313279 8.405604624461317 1 0 0
1662 416 2 0.55733 -8.397040072313057 -7.67052763516982 9.35636308996447 4 -1 0
2348 587 3 -1.11466 -6.384182084100011 -6.176743513713712 -5.696790318228709 0 0 0
3534 408 9 -1.71637987 -8.414923786556102 -6.882899021701952 17.79220767440213 4 2 0
2698 675 2 0.55733 -9.738278091587189 -4.2891968573968535 -8.626091107780367 1 1 0
1630 408 2 0.55733 -9.077918625134975 -7.072452496403686 17.092984159156796 4 2 0
1629 408 1 1.71637987 -8.446164738204132 -6.835520079218242 17.77138771077255 4 2 0
3145 29 9 -1.71637987 -10.658814808033465 -6.19939788697673 15.167445432908696 -1 0 0
1632 408 3 -1.11466 -8.483320174527746 -6.726415962722246 17.5655164195683 4 2 0
2464 616 3 -1.11466 -6.364978142501197 -5.216742617028193 11.851936958895717 2 0 0
3584 484 9 -1.71637987 -9.743205984014574 -5.146576580649359 10.774087679039177 -2 0 0
2461 616 1 1.71637987 -6.288450608406335 -5.099823026511559 11.662678554905545 2 0 0
116 29 3 -1.11466 -10.654986971570498 -5.88012496458281 15.08800720609947 -1 0 0
1309 328 1 1.71637987 -7.204493875418641 -4.161088873228143 -12.921057561768434 3 1 0
1226 307 2 0.55733 -7.819883449669107 -4.4556556939631715 0.7935012066586176 -1 3 0
736 184 3 -1.11466 -11.867080243979748 -7.0707247264306705 17.353574915200568 0 -1 0