LAMMPS data file via write_data, version 29 Sep 2021, timestep = 6000000

3910 atoms
14 atom types
3109 bonds
9 bond types
2305 angles
3 angle types
768 impropers
1 improper types

-12.418372 12.418372 xlo xhi
-12.418372 12.418372 ylo yhi
-55.882675 55.882675 zlo zhi

Masses

1 15.2
2 1
3 0.001
4 15.2
5 15.2
6 22.2
7 126.2
8 34.2
9 0.8
10 0.8
11 0.8
12 0.8
13 0.8
14 0.8

PairIJ Coeffs # lj/cut/thole/long/omp

1 1 0.18985 3.18395 0.97825 2.6 12
1 2 0 1.59197 0 2.6 12
1 3 0 1.59197 0 2.6 12
1 4 0.16326 3.19381 0.96402 2.6 12
1 5 0.16326 3.19381 0.96402 2.6 12
1 6 0.13292 2.72788 0.48454 2.6 12
1 7 0.13706 4.15423 2.60182 2.6 12
1 8 0.13466 3.76133 1.89993 2.6 12
1 9 0.01055 3.18395 0.97825 2.6 12
1 10 0.00907 3.19381 0.96402 2.6 12
1 11 0.00907 3.19381 0.96402 2.6 12
1 12 0.00505 2.72788 0.48454 2.6 12
1 13 0.00091 4.15423 2.60182 2.6 12
1 14 0.00332 3.76133 1.89993 2.6 12
2 2 0 0 0 2.6 12
2 3 0 0 0 2.6 12
2 4 0 1.60183 0 2.6 12
2 5 0 1.60183 0 2.6 12
2 6 0 1.1359 0 2.6 12
2 7 0 2.56225 0 2.6 12
2 8 0 2.16935 0 2.6 12
2 9 0 1.59197 0 2.6 12
2 10 0 1.60183 0 2.6 12
2 11 0 1.60183 0 2.6 12
2 12 0 1.1359 0 2.6 12
2 13 0 2.56225 0 2.6 12
2 14 0 2.16935 0 2.6 12
3 3 0 0 0 2.6 12
3 4 0 1.60183 0 2.6 12
3 5 0 1.60183 0 2.6 12
3 6 0 1.1359 0 2.6 12
3 7 0 2.56225 0 2.6 12
3 8 0 2.16935 0 2.6 12
3 9 0 1.59197 0 2.6 12
3 10 0 1.60183 0 2.6 12
3 11 0 1.60183 0 2.6 12
3 12 0 1.1359 0 2.6 12
3 13 0 2.56225 0 2.6 12
3 14 0 2.16935 0 2.6 12
4 4 0.1404 3.20367 0.95 2.6 12
4 5 0.1404 3.20367 0.95 2.6 12
4 6 0.11431 2.73773 0.47749 2.6 12
4 7 0.11787 4.16409 2.56398 2.6 12
4 8 0.1158 3.77119 1.8723 2.6 12
4 9 0.00907 3.19381 0.96402 2.6 12
4 10 0.0078 3.20367 0.95 2.6 12
4 11 0.0078 3.20367 0.95 2.6 12
4 12 0.00434 2.73773 0.47749 2.6 12
4 13 0.00079 4.16409 2.56398 2.6 12
4 14 0.00285 3.77119 1.8723 2.6 12
5 5 0.1404 3.20367 0.95 2.6 12
5 6 0.11431 2.73773 0.47749 2.6 12
5 7 0.11787 4.16409 2.56398 2.6 12
5 8 0.1158 3.77119 1.8723 2.6 12
5 9 0.00907 3.19381 0.96402 2.6 12
5 10 0.0078 3.20367 0.95 2.6 12
5 11 0.0078 3.20367 0.95 2.6 12
5 12 0.00434 2.73773 0.47749 2.6 12
5 13 0.00079 4.16409 2.56398 2.6 12
5 14 0.00285 3.77119 1.8723 2.6 12
6 6 0.09304 2.2718 0.24 2.6 12
6 7 0.09589 3.69815 1.28872 2.6 12
6 8 0.09424 3.30525 0.94106 2.6 12
6 9 0.00726 2.72788 0.48454 2.6 12
6 10 0.00624 2.73773 0.47749 2.6 12
6 11 0.00624 2.73773 0.47749 2.6 12
6 12 0.00348 2.2718 0.24 2.6 12
6 13 0.00063 3.69815 1.28872 2.6 12
6 14 0.00229 3.30525 0.94106 2.6 12
7 7 0.09874 5.1245 6.92 2.6 12
7 8 0.09708 4.7316 5.0532 2.6 12
7 9 0.00726 4.15423 2.60182 2.6 12
7 10 0.00624 4.16409 2.56398 2.6 12
7 11 0.00624 4.16409 2.56398 2.6 12
7 12 0.00348 3.69815 1.28872 2.6 12
7 13 0.00063 5.1245 6.92 2.6 12
7 14 0.00229 4.7316 5.0532 2.6 12
8 8 0.09543 4.3387 3.69 2.6 12
8 9 0.00726 3.76133 1.89993 2.6 12
8 10 0.00624 3.77119 1.8723 2.6 12
8 11 0.00624 3.77119 1.8723 2.6 12
8 12 0.00348 3.30525 0.94106 2.6 12
8 13 0.00063 4.7316 5.0532 2.6 12
8 14 0.00229 4.3387 3.69 2.6 12
9 9 0 3.18395 0.97825 2.6 12
9 10 0 3.19381 0.96402 2.6 12
9 11 0 3.19381 0.96402 2.6 12
9 12 0 2.72788 0.48454 2.6 12
9 13 0 4.15423 2.60182 2.6 12
9 14 0 3.76133 1.89993 2.6 12
10 10 0 3.20367 0.95 2.6 12
10 11 0 3.20367 0.95 2.6 12
10 12 0 2.73773 0.47749 2.6 12
10 13 0 4.16409 2.56398 2.6 12
10 14 0 3.77119 1.8723 2.6 12
11 11 0 3.20367 0.95 2.6 12
11 12 0 2.73773 0.47749 2.6 12
11 13 0 4.16409 2.56398 2.6 12
11 14 0 3.77119 1.8723 2.6 12
12 12 0 2.2718 0.24 2.6 12
12 13 0 3.69815 1.28872 2.6 12
12 14 0 3.30525 0.94106 2.6 12
13 13 0 5.1245 6.92 2.6 12
13 14 0 4.7316 5.0532 2.6 12
14 14 0 4.3387 3.69 2.6 12

Bond Coeffs # harmonic/omp

1 10000 0.9572
2 10000 0.24034
3 10000 1.278
4 500 0
5 500 0
6 500 0
7 500 0
8 500 0
9 500 0

Angle Coeffs # harmonic/omp

1 10000 104.52
2 10000 52.26
3 10000 116.8

Improper Coeffs # harmonic/omp

1 10000 0

Atoms # full

3319 225 9 -1.71637987 -9.11073296128818 -9.40145200486239 -20.00483510997043 0 2 0
899 225 2 0.55733 -8.803490282547303 -8.725043615369344 -20.650773681680356 0 2 0
2862 716 2 0.55733 -11.90741120540259 -11.189424613745059 3.6528978758152837 1 0 0
897 225 1 1.71637987 -9.136045930814497 -9.376894988508289 -20.034908414855824 0 2 0
900 225 3 -1.11466 -9.190684593173879 -9.150276077122173 -20.045032931240787 0 2 0
1391 348 2 0.55733 -8.401952338446831 -10.250095802240937 -18.580062321124007 1 2 0
1392 348 3 -1.11466 -8.187414533408036 -10.642276982253545 -17.87589343547899 1 2 0
1975 494 2 0.55733 -10.976276994097448 -9.889646993970361 -14.846574101690253 0 0 0
2291 573 2 0.55733 -10.313514445476157 -12.39253639587428 -6.19057409638238 2 0 0
1973 494 1 1.71637987 -11.239274653372268 -10.68285390691041 -14.381901234822386 0 0 0
1976 494 3 -1.11466 -11.217500921543893 -10.46485071817404 -14.294371707611107 0 0 0
3659 494 9 -1.71637987 -11.2292960088928 -10.771283230456135 -14.420728136788357 0 0 0
2551 638 2 0.55733 -7.974583845826537 -10.54857428353594 -12.163372928952272 2 0 0
1795 449 2 0.55733 -8.773252556109085 -12.043680398465053 6.260805412395763 -1 0 0
3800 630 9 -1.71637987 -8.021372037969885 -12.22686532566859 -13.329031784439035 -2 -3 0
1390 348 2 0.55733 -8.655910857263171 -11.029137752580008 -17.305103188331675 1 2 0
2549 638 1 1.71637987 -7.740727899011766 -9.64598618727132 -11.956339711215113 2 0 0
2552 638 3 -1.11466 -7.597942210193683 -9.816784839567815 -12.027408509392922 2 0 0
1389 348 1 1.71637987 -7.957903275064863 -10.64424726669984 -17.83130957597968 1 2 0
3747 638 9 -1.71637987 -7.796908578507019 -9.57862613703631 -11.959577243028889 2 0 0
3500 348 9 -1.71637987 -7.887912353303346 -10.652668045487163 -17.80810757665446 1 2 0
3040 760 3 -1.11466 -11.815859818037913 -11.921008563834375 -9.404941984496586 -2 0 0
1974 494 2 0.55733 -11.399692274732065 -10.397784767651526 -13.48385746245249 0 0 0
1945 487 1 1.71637987 -11.996245814112873 -10.700480871688539 -7.191052275165729 1 -1 0
3 1 2 0.55733 -8.379012005864473 -8.770229448764962 13.342961529028232 0 0 0
2550 638 2 0.55733 -6.797992299665113 -9.59510337470735 -12.106813126099427 2 0 0
2934 734 2 0.55733 -6.630098219087255 -12.312297273088202 -3.5187255930138854 2 1 0
898 225 2 0.55733 -9.745737291560273 -8.896771329128638 -19.475867395201718 0 2 0
1563 391 2 0.55733 -11.434291949546735 -9.236081674683938 -11.589187653352218 0 0 0
1370 343 2 0.55733 -6.5257131732585 -9.056767245436737 -8.556330756546211 1 1 0
1948 487 3 -1.11466 -12.04201499695089 -10.472448985338007 -7.164425987169834 1 -1 0
1758 440 2 0.55733 -10.310029775753378 -12.367521056545362 -10.768409578533712 0 0 0
2861 716 1 1.71637987 -11.745995023126033 -11.686259150030786 4.454631128827603 1 0 0
1231 308 2 0.55733 -7.263278494852684 -8.627859628730999 -14.891550454345996 0 -1 0
2517 630 1 1.71637987 -8.074060404085452 -12.271336556476001 -13.334120843281895 -2 -3 0
1232 308 3 -1.11466 -7.890303431599834 -8.435526537081667 -14.373125715349728 0 -1 0
1582 396 2 0.55733 -11.640444318695502 -10.615019239902521 18.735805841259566 0 -2 0
1614 404 2 0.55733 -12.186686114643557 -9.573470139284492 1.584476915407599 1 1 0
1229 308 1 1.71637987 -8.052393917267805 -8.295288843917392 -14.464205740599603 0 -1 0
2292 573 3 -1.11466 -9.503593608209785 -12.261408731298916 -6.339974681067122 2 0 0
584 146 3 -1.11466 -12.102000997332878 -9.971102273540636 -4.275758502618223 0 1 0
1581 396 1 1.71637987 -12.300154734284792 -10.006421743563967 19.06324134661418 0 -2 0
2864 716 3 -1.11466 -11.94956979011733 -11.653165209548318 4.3452785918719785 1 0 0
1141 286 1 1.71637987 -8.041353309047985 -12.07563269090502 -9.188825985377608 1 -1 0
3411 286 9 -1.71637987 -8.083244254601281 -12.040189918316774 -9.12468447952091 1 -1 0
1979 495 2 0.55733 -6.7552880280119725 -9.855447626528173 -5.445824209033566 0 0 0
368 92 3 -1.11466 -8.363996483611826 -9.462899513596124 -8.374793496320795 2 -1 0
1980 495 3 -1.11466 -7.548711685022485 -9.640404986159222 -5.302947500470928 0 0 0
1977 495 1 1.71637987 -7.620514273850058 -9.673643847165476 -5.082706367139329 0 0 0
3653 495 9 -1.71637987 -7.636069678660023 -9.650237207692083 -5.017166922571809 0 0 0
366 92 2 0.55733 -8.294122521596774 -10.289048485414916 -8.479340044062662 2 -1 0
1978 495 2 0.55733 -8.12668496642696 -9.326202203577573 -5.814402417336624 0 0 0
1947 487 2 0.55733 -11.369843915614606 -9.996229006344889 -7.023978523507489 1 -1 0
3540 391 9 -1.71637987 -11.995498845726699 -9.955939280231549 -11.99550340767196 0 0 0
3037 760 1 1.71637987 -11.756762929881742 -11.857556570932118 -9.624052687310979 -2 0 0
3595 487 9 -1.71637987 -11.979360115722468 -10.771623958906915 -7.220138428077458 1 -1 0
3236 146 9 -1.71637987 -12.394502816926163 -9.99119897505774 -4.261813566711454 0 1 0
3204 92 9 -1.71637987 -8.15454184316964 -9.280704980613464 -8.526628172157004 2 -1 0
367 92 2 0.55733 -8.840463289878267 -9.021203717201967 -7.85100032659736 2 -1 0
365 92 1 1.71637987 -8.22507036562092 -9.334412148711145 -8.513150716787225 2 -1 0
583 146 2 0.55733 -11.798289979872566 -9.773536833761273 -5.028340586897945 0 1 0
1142 286 2 0.55733 -7.140675332977851 -11.98063271627537 -9.496799483547736 1 -1 0
129 33 1 1.71637987 -10.220023218022657 -8.42646823873215 0.13474917882625506 -1 -1 0
3870 716 9 -1.71637987 -11.691457743683758 -11.687464921199647 4.522057467667485 1 0 0
1233 309 1 1.71637987 -9.313171052852908 -11.105681580201708 18.993731325714744 2 2 0
2942 736 2 0.55733 -6.726765710317649 -11.633931046599916 14.783674889521562 4 0 0
1230 308 2 0.55733 -8.028491339702661 -8.664270030901646 -13.58239217501846 0 -1 0
3788 644 9 -1.71637987 -12.257573665153519 -10.203495430137648 -1.0267296603870673 1 -2 0
1584 396 3 -1.11466 -12.220754402210945 -10.199496358770025 19.16763350652788 0 -2 0
591 148 2 0.55733 -6.670224642278318 -9.465937716539864 16.53569618458847 1 1 0
3895 760 9 -1.71637987 -11.719968927579547 -11.842677585675137 -9.702242558196533 -2 0 0
2575 644 2 0.55733 -11.938308468916262 -11.13652364146825 -0.9959829552179111 1 -2 0
799 200 2 0.55733 -12.347712341090954 -11.05000689207271 13.522961428583418 1 2 0
3521 404 9 -1.71637987 -12.001354677941343 -10.30527993734115 2.264847633633666 1 1 0
1613 404 1 1.71637987 -11.992287030691191 -10.273193050368784 2.2065602816149132 1 1 0
1616 404 3 -1.11466 -11.843409619788503 -10.166361381344831 2.0595576660639563 1 1 0
582 146 2 0.55733 -11.713615589666073 -10.079124713217556 -3.545754253029116 0 1 0
2354 589 2 0.55733 -9.002554813988459 -10.012437335368942 -3.7338403521500645 1 0 0
1615 404 2 0.55733 -11.05727984562105 -10.444966849460615 2.097315386881865 1 1 0
605 152 1 1.71637987 -8.91012984170121 -11.425043859960207 2.322235970086248 0 1 0
3261 152 9 -1.71637987 -8.897687066676784 -11.366239049929717 2.3347574186577478 0 1 0
608 152 3 -1.11466 -8.843141874412904 -11.620007221874198 2.2049068109709906 0 1 0
2355 589 2 0.55733 -9.497560759278027 -10.668313186083955 -2.46113892113617 1 0 0
606 152 2 0.55733 -8.801965032729914 -11.529344001756153 1.3765780267038668 0 1 0
3779 627 9 -1.71637987 -7.750789642450916 -11.705176867452963 -0.18800351611877456 2 -2 0
2508 627 3 -1.11466 -7.481831856435834 -11.746462013867824 -0.18574298582528562 2 -2 0
2505 627 1 1.71637987 -7.711268299891151 -11.71302820664648 -0.21802818481320274 2 -2 0
2356 589 3 -1.11466 -9.470981542400562 -10.077373292365085 -3.0482965951716774 1 0 0
2353 589 1 1.71637987 -9.621239602328172 -9.900228149027148 -3.01327595946181 1 0 0
3781 589 9 -1.71637987 -9.66467645776978 -9.857382774761232 -3.002028237635863 1 0 0
985 247 1 1.71637987 -6.978942692113771 -9.316225472852423 2.0106618760399355 -1 0 0
3375 247 9 -1.71637987 -6.950511679227205 -9.32768339178621 2.0556693986433516 -1 0 0
988 247 3 -1.11466 -7.213281658302178 -9.288078389996027 2.009768185495976 -1 0 0
987 247 2 0.55733 -7.646655735622378 -9.98470309352019 2.1586989404876418 -1 0 0
2576 644 3 -1.11466 -11.998577353676632 -10.308517182362845 -0.9149897598135055 1 -2 0
2574 644 2 0.55733 -11.48782932329819 -9.760411063221593 -0.5486623149705292 1 -2 0
3038 760 2 0.55733 -11.697561363456963 -11.331967133824813 -8.827170972239871 -2 0 0
3513 396 9 -1.71637987 -12.347887851578111 -9.954633303388638 19.028726998326302 0 -2 0
2506 627 2 0.55733 -7.006944422461881 -11.082322866958462 -0.358781878512878 2 -2 0
986 247 2 0.55733 -7.470080533597842 -8.511343697535708 1.8509556475696094 -1 0 0
2573 644 1 1.71637987 -12.190048571752484 -10.215024117765887 -1.011798655684643 1 -2 0
1561 391 1 1.71637987 -11.972525973382893 -9.954097201248082 -11.919960719172925 0 0 0
1144 286 3 -1.11466 -7.962279095285013 -12.097949229501154 -9.408248414252624 1 -1 0
307 77 2 0.55733 -7.635854031473989 -9.163266993412979 3.754751527908315 -2 -1 0
2463 616 2 0.55733 -7.758934943473303 -10.16792150936863 8.894595593738549 3 -2 0
998 250 2 0.55733 -12.178301439776572 -9.971313389091923 9.691989503330872 -1 -2 0
2462 616 2 0.55733 -6.925215125410243 -11.083507079786386 8.021096573582332 3 -2 0
308 77 3 -1.11466 -7.601388622902395 -9.02698143787426 4.5765291527656835 -2 -1 0
1794 449 2 0.55733 -7.999121172846922 -10.955674520703788 5.543859069498456 -1 0 0
3197 77 9 -1.71637987 -7.63708951111953 -9.254517512206656 4.734017720963112 -2 -1 0
713 179 1 1.71637987 -9.117762471270206 -9.432823945333546 10.477409214255598 -2 1 0
3287 179 9 -1.71637987 -9.07296787295376 -9.42095417548812 10.470410960750675 -2 1 0
3699 616 9 -1.71637987 -6.813730606714074 -10.373587487824828 8.709620673462432 3 -2 0
305 77 1 1.71637987 -7.6308358302150765 -9.217077599611518 4.707343208805269 -2 -1 0
2461 616 1 1.71637987 -6.85593018652763 -10.378083537035177 8.663507230575092 3 -2 0
714 179 2 0.55733 -9.828056318919902 -9.32337484687912 9.845485587180313 -2 1 0
997 250 1 1.71637987 -12.02919591363953 -9.071188196729274 9.405695664944663 -1 -2 0
78 20 2 0.55733 -10.950853805230366 -10.293364320753104 5.647648871268295 1 -3 0
3124 20 9 -1.71637987 -10.757258022241885 -9.491765143421265 6.1825827390841575 1 -3 0
77 20 1 1.71637987 -10.732819459301508 -9.532274288827667 6.183687714245594 1 -3 0
80 20 3 -1.11466 -10.585100669833826 -9.689173310097418 6.090688506854363 1 -3 0
79 20 2 0.55733 -9.780274009618465 -9.552340829595336 6.262254445610224 1 -3 0
999 250 2 0.55733 -11.930868823285195 -9.127569966068954 8.457053756175982 -1 -2 0
3183 250 9 -1.71637987 -12.000478643118345 -9.035892448293206 9.435125745310053 -1 -2 0
1000 250 3 -1.11466 -12.03938217431177 -9.263059142919275 9.273377042949367 -1 -2 0
716 179 3 -1.11466 -9.327254467738227 -9.540032322292433 10.476749542719753 -2 1 0
2464 616 3 -1.11466 -7.0517874519668045 -10.4778660698861 8.58003637356012 3 -2 0
3569 449 9 -1.71637987 -7.906261655119673 -11.57312108563866 6.329904130171149 -1 0 0
2289 573 1 1.71637987 -9.361104276467497 -12.304709945063328 -6.158514011069395 2 0 0
1796 449 3 -1.11466 -8.124797260681873 -11.535467191240276 6.131110100820196 -1 0 0
1793 449 1 1.71637987 -7.949815691836126 -11.557781235041183 6.285395677559323 -1 0 0
2 1 2 0.55733 -7.904071116769492 -8.502271564165865 11.929087065702246 0 0 0
306 77 2 0.55733 -7.47722308553917 -8.322739418588508 5.004945467239309 -2 -1 0
607 152 2 0.55733 -8.694988140641462 -12.283986089543333 2.686627428808711 0 1 0
829 208 1 1.71637987 -9.472247156578343 -9.76778292301015 14.413546808845444 0 -1 0
1564 391 3 -1.11466 -11.892584615223686 -9.923976658508623 -11.701359343367212 0 0 0
800 200 3 -1.11466 -11.564756156590873 -11.32964619325096 13.453607855546704 1 2 0
798 200 2 0.55733 -11.120392485878162 -11.53706929558732 12.77761446362565 1 2 0
2941 736 1 1.71637987 -6.7091780427098735 -10.754717379608033 15.159661199950959 4 0 0
2290 573 2 0.55733 -9.112640146956725 -12.006397732194255 -7.031062673954421 2 0 0
3315 208 9 -1.71637987 -9.454307149785427 -9.698999387907891 14.382875595466396 0 -1 0
831 208 2 0.55733 -8.68468315237804 -10.193017156752727 14.749469953060782 0 -1 0
797 200 1 1.71637987 -11.451073421059874 -11.3560817297699 13.656007346112606 1 2 0
592 148 3 -1.11466 -6.555267526227369 -9.225622967881224 17.32566273971368 1 1 0
3271 148 9 -1.71637987 -6.740387002577414 -8.997363120370682 17.426214887063473 1 1 0
715 179 2 0.55733 -9.447415671984542 -10.072687657456427 11.107691683379612 -2 1 0
381 96 1 1.71637987 -9.19931958198061 -12.266321621850015 11.95060416764773 1 1 0
3290 33 9 -1.71637987 -10.286325158883736 -8.474927469404873 0.1212974855994521 -1 -1 0
3188 96 9 -1.71637987 -9.23957171354922 -12.225767475069155 11.95426548307087 1 1 0
589 148 1 1.71637987 -6.710300071400099 -9.065101949596704 17.404365076080335 1 1 0
3844 736 9 -1.71637987 -6.749513741282283 -10.702347575608261 15.20642251585032 4 0 0
2944 736 3 -1.11466 -6.543871024922969 -10.85908569540349 15.03375179055619 4 0 0
1236 309 3 -1.11466 -9.109487869974455 -11.003726405608365 18.941447495001565 2 2 0
832 208 3 -1.11466 -9.441645339957047 -9.99364387052637 14.460105403980734 0 -1 0
1562 391 2 0.55733 -12.115925274687816 -10.52163658445714 -11.162575968220821 0 0 0
1234 309 2 0.55733 -8.845044764431035 -10.448405776358088 19.505099759910678 2 2 0
3307 200 9 -1.71637987 -11.387022667537789 -11.358298035743067 13.730540200503082 1 2 0
1235 309 2 0.55733 -8.765528822763164 -11.252645178750175 18.22241320645441 2 2 0
830 208 2 0.55733 -10.110285751820562 -10.472015442637204 14.315209846396664 0 -1 0
3415 309 9 -1.71637987 -9.343375617511086 -11.118359269828575 19.003315531795916 2 2 0
581 146 1 1.71637987 -12.334642926899576 -10.00339182550365 -4.270556308875308 0 1 0
559 140 2 0.55733 -6.77863094666848 -8.303959823568267 -1.0487955204295625 0 -2 0
883 221 2 0.55733 -6.84976124513169 -8.325845254634547 9.399307355008432 -1 -2 0
3710 573 9 -1.71637987 -9.332133827657382 -12.35474198772663 -6.126815874057203 2 0 0
2066 517 2 0.55733 -8.96535544127658 -8.302853964219805 -11.459130969244848 -1 -1 0
2315 579 2 0.55733 -10.934026911872275 -8.45870411917126 -8.561784016670495 1 2 0
4 1 3 -1.11466 -7.904707685079256 -8.41083326088345 12.758083851853819 0 0 0
3497 794 14 -3.45723606 -10.334143629204807 -8.312541270627168 -6.542919901145586 1 1 0
1143 286 2 0.55733 -8.548913599418222 -12.277845481622613 -9.973061578227659 1 -1 0
415 104 2 0.55733 -10.088469322119172 -12.077585906713109 -15.734609817125492 1 1 0
1606 402 2 0.55733 -12.267429606955343 -4.4805531400521 18.421523180513216 1 2 0
3645 517 9 -1.71637987 -9.659911099662157 -7.554726077419456 -11.594511569729297 -1 -1 0
1604 401 3 -1.11466 -8.587011685905114 -5.387919573404136 -14.136951067605446 1 0 0
1601 401 1 1.71637987 -8.743800376496104 -5.323212120568122 -13.974231055692911 1 0 0
1602 401 2 0.55733 -8.215461309209129 -6.121088424041468 -13.993496830708292 1 0 0
3541 401 9 -1.71637987 -8.806263705936432 -5.314303712736516 -13.90193513147166 1 0 0
3111 1 9 -1.71637987 -7.683773846584414 -8.233889243756781 12.843731637690107 0 0 0
2065 517 1 1.71637987 -9.6333257614319 -7.624729909104464 -11.550181332792254 -1 -1 0
3078 772 6 1.68760387 -10.472354173564087 -5.665340517988961 -12.532407109307757 -1 1 0
3394 772 12 -0.68760387 -10.474026604244601 -5.658397406967722 -12.52377537652458 -1 1 0
139 35 2 0.55733 -11.935463345264932 -7.330195443839588 -14.061492036303882 1 0 0
2683 671 2 0.55733 -7.037147381121099 -6.480576505078227 -11.056084900864628 0 -2 0
2731 683 2 0.55733 -10.930244261640752 -7.641086008276298 -16.24477465707015 3 1 0
2730 683 2 0.55733 -9.848156725374356 -8.042867374940837 -15.261607183573018 3 1 0
1603 401 2 0.55733 -8.491512737987225 -4.843868377959972 -14.761804096388406 1 0 0
3906 759 9 -1.71637987 -11.831675085465443 -7.359718899577196 -17.85157419832755 3 0 0
3033 759 1 1.71637987 -11.89053823214956 -7.35367270921865 -17.878851852581462 3 0 0
3036 759 3 -1.11466 -12.115107737828598 -7.32886860024032 -17.82167893517596 3 0 0
3901 579 9 -1.71637987 -11.234384989745726 -8.201504832612306 -9.495151181692593 1 2 0
2260 565 3 -1.11466 -6.384478308008555 -7.542891519975084 -4.389957644969964 -2 0 0
1361 341 1 1.71637987 -7.988110634650746 -4.628685532623956 16.2700951580175 1 1 0
1298 325 2 0.55733 -12.340793482795831 -7.016771946158247 15.572815331876859 1 -1 0
3894 744 9 -1.71637987 -7.492054853289809 -5.821965822811688 20.37766756412854 1 3 0
2729 683 1 1.71637987 -10.794301014994392 -7.930288151295561 -15.344230928010008 3 1 0
2630 658 2 0.55733 -11.098731291562519 -6.807866626762806 13.42568955353114 1 -1 0
2975 744 2 0.55733 -8.014658598323356 -6.381630641135212 19.76648569816792 1 3 0
140 35 3 -1.11466 -12.319893509427029 -7.1032011684762315 -13.356997566391879 1 0 0
2068 517 3 -1.11466 -9.613047999405525 -7.781231619750172 -11.37852784162178 -1 -1 0
2807 702 2 0.55733 -11.93612095627477 -7.399670549640839 -0.5097561349501433 1 -2 0
2314 579 2 0.55733 -11.854928222391635 -7.471025428483948 -9.253108095444572 1 2 0
2250 563 2 0.55733 -7.247378204787348 -6.257457828648027 12.951628792165577 2 -2 0
3892 749 9 -1.71637987 -9.051767204584506 -4.3531823778102865 -10.687993810310033 1 1 0
51 13 2 0.55733 -7.181115131949987 -6.160331099676653 -8.640905818917734 2 0 0
3125 13 9 -1.71637987 -7.8994121548505944 -6.347373662744194 -9.315445787656305 2 0 0
2995 749 2 0.55733 -8.759119118820342 -5.188007675457357 -10.253769001548402 1 1 0
49 13 1 1.71637987 -7.87359193757471 -6.397722644581558 -9.25500428872197 2 0 0
52 13 3 -1.11466 -7.795964675659023 -6.522229266151574 -9.074421898093817 2 0 0
50 13 2 0.55733 -8.176956243658685 -7.257979839685147 -8.962823365910005 2 0 0
1986 497 2 0.55733 -9.906668830057145 -7.95248624351181 -2.570282333319244 0 -1 0
2996 749 3 -1.11466 -9.167714717169066 -4.495282687160573 -10.476011447828451 1 1 0
1183 296 2 0.55733 -12.341602264751863 -6.533208584593659 11.543474415329024 1 -1 0
2993 749 1 1.71637987 -9.073618634891359 -4.378845796123323 -10.653429031700911 1 1 0
3807 683 9 -1.71637987 -10.845680391382059 -7.945341399689168 -15.28755289496538 3 1 0
3034 759 2 0.55733 -12.25341073209684 -6.809599717059494 -17.183312633975657 3 0 0
2043 511 2 0.55733 -12.275398595381601 -6.9541864735782015 18.65820273334828 0 0 0
2258 565 2 0.55733 -6.803017877510832 -8.257445501000477 -4.484240236154091 -2 0 0
279 70 2 0.55733 -6.493644076465571 -6.568823441666335 6.206324403445109 0 0 0
1014 254 2 0.55733 -6.399376791765815 -5.115320930144429 11.213759329713376 2 1 0
2119 530 2 0.55733 -12.19624668402841 -4.981547704827346 -9.743431458343785 2 0 0
2313 579 1 1.71637987 -11.26910656346348 -8.208507836706358 -9.424053683401374 1 2 0
2128 532 3 -1.11466 -11.428028918956475 -7.494922466976068 4.334075002295306 -1 -1 0
2974 744 2 0.55733 -6.653553990686019 -6.393828995579597 20.433429901618602 1 3 0
2124 531 3 -1.11466 -12.23200996626917 -4.161906481809188 13.138359296161891 1 2 0
3101 795 8 2.45723606 -8.22275765695747 -4.8932309202345365 -3.7955504929428487 0 -1 0
1179 295 2 0.55733 -10.744407830101444 -5.563143779187269 19.717553432856327 2 0 0
3776 795 14 -3.45723606 -8.252116763675609 -4.891818178952528 -3.803465422439891 0 -1 0
131 33 2 0.55733 -9.86739779677577 -7.770550234898829 0.7367923038475997 -1 -1 0
1885 472 1 1.71637987 -8.526997578965435 -6.858341073905374 17.911662504973137 1 0 0
3501 532 9 -1.71637987 -11.287198940227809 -7.256844256890842 4.342370236576595 -1 -1 0
2031 508 2 0.55733 -8.6616473261403 -6.266098503180181 2.5640202713724554 0 1 0
1987 497 2 0.55733 -9.292511649025782 -6.57916517787076 -2.755422446507588 0 -1 0
2032 508 3 -1.11466 -9.343093441412067 -6.725547224734579 2.4186340052480495 0 1 0
2029 508 1 1.71637987 -9.352529677775655 -6.820810620964044 2.2055945084869233 0 1 0
3634 508 9 -1.71637987 -9.348292989891386 -6.8693204029260055 2.1476559695663724 0 1 0
3313 222 9 -1.71637987 -6.589587502276212 -5.853533290858557 3.3326195728102115 -2 0 0
885 222 1 1.71637987 -6.53110961274615 -5.845334501805569 3.2782402951568224 -2 0 0
888 222 3 -1.11466 -6.3541585076978055 -5.729540487948141 3.1782715112855273 -2 0 0
137 35 1 1.71637987 -12.231749168229975 -6.910926334271387 -13.255415507168928 1 0 0
3627 497 9 -1.71637987 -9.965064404536168 -7.074913329281097 -2.174800990237322 0 -1 0
887 222 2 0.55733 -6.475296147605023 -4.908185264655518 3.09442362080703 -2 0 0
3051 763 2 0.55733 -6.341293600180815 -5.889385176853671 16.744006364699775 0 -1 0
1985 497 1 1.71637987 -9.951189494549107 -7.051920751398914 -2.247064416889273 0 -1 0
1988 497 3 -1.11466 -9.809005637126411 -7.139041586359878 -2.415569198348243 0 -1 0
2879 720 2 0.55733 -7.389181715852129 -4.431898276345561 1.150545313455753 0 -2 0
2259 565 2 0.55733 -6.653889871686648 -6.77546279974801 -4.208276284657478 -2 0 0
1214 304 2 0.55733 -12.224353929060415 -4.399508975705091 -3.032038851358268 1 0 0
560 140 3 -1.11466 -7.079552793731072 -7.5725665853316 -0.7866610916767732 0 -2 0
2222 556 2 0.55733 -9.241387730466945 -5.238078193329755 21.108306685108605 -3 -1 0
2976 744 3 -1.11466 -7.404601253790759 -6.082263925981092 20.24918703221846 1 3 0
2316 579 3 -1.11466 -11.319396023859726 -8.110678624818316 -9.21695261400818 1 2 0
881 221 1 1.71637987 -6.746029035412646 -7.4126686144928735 9.658206807459765 -1 -2 0
558 140 2 0.55733 -7.760126699895277 -7.149665868696298 -1.0188308098885837 0 -2 0
2127 532 2 0.55733 -12.19840897267963 -7.520764219163421 4.018153646655179 -1 -1 0
1180 295 3 -1.11466 -10.823344639028086 -5.816071089567372 18.927359820758376 2 0 0
1 1 1 1.71637987 -7.744706157122266 -8.26003014788028 12.840475151231201 0 0 0
2681 671 1 1.71637987 -6.451519084241307 -6.591044310034147 -11.803586899943808 0 -2 0
2030 508 2 0.55733 -9.99628490721498 -6.897438371136674 2.9096361971961224 0 1 0
2361 591 1 1.71637987 -9.527765701185288 -5.333772030577912 10.752944344156512 1 -1 0
2364 591 3 -1.11466 -9.65143301238994 -5.506703311299685 10.655245008410354 1 -1 0
2732 683 3 -1.11466 -10.631974242628885 -7.894155673363012 -15.507947631094805 3 1 0
2200 550 3 -1.11466 -11.145244663131857 -5.918442851867606 6.597412985551659 1 -1 0
806 202 2 0.55733 -9.785494086244363 -5.974843370591223 7.730636652504595 0 -2 0
2197 550 1 1.71637987 -11.132206861847388 -5.914893893321222 6.831576300816221 1 -1 0
2198 550 2 0.55733 -11.189822410554948 -6.682752737115995 6.263206911722773 1 -1 0
3140 35 9 -1.71637987 -12.19099795274186 -6.846872654388994 -13.206073609958443 1 0 0
1184 296 3 -1.11466 -11.744134476882227 -7.110348630370331 11.455999028347144 1 -1 0
3152 70 9 -1.71637987 -7.312651305422873 -5.967377528840998 6.066897323073081 0 0 0
277 70 1 1.71637987 -7.245942636935758 -6.01105589269632 6.010078527582351 0 0 0
807 202 2 0.55733 -8.307476811195253 -5.938489817111688 7.398336337883828 0 -2 0
278 70 2 0.55733 -7.135172358798487 -5.762154483495041 5.093941895226953 0 0 0
808 202 3 -1.11466 -8.970605442229804 -6.029968184745852 7.896438360621743 0 -2 0
3329 202 9 -1.71637987 -8.905001458941877 -6.075851734594613 8.206000928509 0 -2 0
3694 550 9 -1.71637987 -11.101806985883709 -5.931341511314279 6.913640495455434 1 -1 0
2199 550 2 0.55733 -11.13623475025968 -5.167539264514496 6.232734268210086 1 -1 0
805 202 1 1.71637987 -8.91944481561569 -6.0777414666131415 8.120842504452325 0 -2 0
3222 296 9 -1.71637987 -11.474063084693531 -7.0273282821972405 11.610654870042463 1 -1 0
1181 296 1 1.71637987 -11.544233815919732 -7.062749493464677 11.561911063819064 1 -1 0
280 70 3 -1.11466 -7.072499864102276 -6.073634180046959 5.865295985952178 0 0 0
2362 591 2 0.55733 -9.534274632050973 -5.598847998705396 9.833494355113052 1 -1 0
3403 295 9 -1.71637987 -11.10087275136914 -5.721414631244177 18.781522609132065 2 0 0
882 221 2 0.55733 -7.533904770294193 -6.9756778435088584 9.33952815878721 -1 -2 0
1182 296 2 0.55733 -11.749309653626552 -7.835796436739127 11.039523181473436 1 -1 0
1886 472 2 0.55733 -8.412115337880838 -6.2127090055802245 17.215145958438455 1 0 0
474 119 2 0.55733 -6.4651146587381225 -5.951894093048465 0.021235742719848183 2 -2 0
132 33 3 -1.11466 -10.132044402591118 -8.21378582936836 0.08165800901562767 -1 -1 0
1177 295 1 1.71637987 -11.011069098135826 -5.727159541607921 18.814963849861034 2 0 0
1178 295 2 0.55733 -10.347676377762667 -6.325017101023901 18.46996265654053 2 0 0
3100 794 8 2.45723606 -10.340234580846046 -8.246433108935097 -6.435409077588957 1 1 0
3093 787 7 3.73310092 -10.40090189067568 -4.35115277948966 -6.739957862466763 1 1 0
2363 591 2 0.55733 -10.140620161941078 -5.928813589218811 11.183928560111909 1 -1 0
2973 744 1 1.71637987 -7.451959255202483 -5.874190750987484 20.351920882358815 1 3 0
2067 517 2 0.55733 -10.1968061633996 -7.7310440148240325 -10.784399975549542 -1 -1 0
2123 531 2 0.55733 -11.923788467050978 -4.7761614888399855 13.61054088527099 1 2 0
1362 341 2 0.55733 -8.47563584396081 -4.398621326647968 15.480427607915376 1 1 0
3713 591 9 -1.71637987 -9.52908502471978 -5.265216596901113 10.78602919443836 1 -1 0
2125 532 1 1.71637987 -11.327443577588344 -7.280628720013246 4.333163631992471 -1 -1 0
2249 563 1 1.71637987 -7.030699466368291 -5.387397834270905 13.283038635077249 2 -2 0
2629 658 1 1.71637987 -10.949680315504638 -6.735149867695935 14.366991899049223 1 -1 0
2252 563 3 -1.11466 -7.24357376139554 -5.472618092399448 13.235670620245648 2 -2 0
3449 341 9 -1.71637987 -7.972055724477565 -4.700546139075514 16.29306629757237 1 1 0
1364 341 3 -1.11466 -8.113150033291182 -4.4328787801413405 16.229638567926287 1 1 0
3656 563 9 -1.71637987 -6.973072031503667 -5.366653601368669 13.275722133664097 2 -2 0
2632 658 3 -1.11466 -10.89481961501172 -6.914955772570787 14.227631704860292 1 -1 0
3758 658 9 -1.71637987 -10.997088797991623 -6.703673574494542 14.411187011888368 1 -1 0
2631 658 2 0.55733 -10.532711908443318 -7.561373851048273 14.613834126893021 1 -1 0
1888 472 3 -1.11466 -8.369516049700922 -6.862550489097097 17.73668955144283 1 0 0
1887 472 2 0.55733 -7.861711239123931 -7.524205596163467 17.73906910406993 1 0 0
3610 472 9 -1.71637987 -8.580136096298126 -6.852781576978986 17.97576368730753 1 0 0
2251 563 2 0.55733 -7.8724780668790775 -4.945122640421147 13.381507448784683 2 -2 0
3327 221 9 -1.71637987 -6.708119685557316 -7.391354604160595 9.666110924005613 -1 -2 0