LAMMPS data file via write_data, version 29 Sep 2021, timestep = 6000000

3910 atoms
14 atom types
3109 bonds
9 bond types
2305 angles
3 angle types
768 impropers
1 improper types

-12.418372 12.418372 xlo xhi
-12.418372 12.418372 ylo yhi
-55.882675 55.882675 zlo zhi

Masses

1 15.2
2 1
3 0.001
4 15.2
5 15.2
6 22.2
7 126.2
8 34.2
9 0.8
10 0.8
11 0.8
12 0.8
13 0.8
14 0.8

PairIJ Coeffs # lj/cut/thole/long/omp

1 1 0.18985 3.18395 0.97825 2.6 12
1 2 0 1.59197 0 2.6 12
1 3 0 1.59197 0 2.6 12
1 4 0.16326 3.19381 0.96402 2.6 12
1 5 0.16326 3.19381 0.96402 2.6 12
1 6 0.13292 2.72788 0.48454 2.6 12
1 7 0.13706 4.15423 2.60182 2.6 12
1 8 0.13466 3.76133 1.89993 2.6 12
1 9 0.01055 3.18395 0.97825 2.6 12
1 10 0.00907 3.19381 0.96402 2.6 12
1 11 0.00907 3.19381 0.96402 2.6 12
1 12 0.00505 2.72788 0.48454 2.6 12
1 13 0.00091 4.15423 2.60182 2.6 12
1 14 0.00332 3.76133 1.89993 2.6 12
2 2 0 0 0 2.6 12
2 3 0 0 0 2.6 12
2 4 0 1.60183 0 2.6 12
2 5 0 1.60183 0 2.6 12
2 6 0 1.1359 0 2.6 12
2 7 0 2.56225 0 2.6 12
2 8 0 2.16935 0 2.6 12
2 9 0 1.59197 0 2.6 12
2 10 0 1.60183 0 2.6 12
2 11 0 1.60183 0 2.6 12
2 12 0 1.1359 0 2.6 12
2 13 0 2.56225 0 2.6 12
2 14 0 2.16935 0 2.6 12
3 3 0 0 0 2.6 12
3 4 0 1.60183 0 2.6 12
3 5 0 1.60183 0 2.6 12
3 6 0 1.1359 0 2.6 12
3 7 0 2.56225 0 2.6 12
3 8 0 2.16935 0 2.6 12
3 9 0 1.59197 0 2.6 12
3 10 0 1.60183 0 2.6 12
3 11 0 1.60183 0 2.6 12
3 12 0 1.1359 0 2.6 12
3 13 0 2.56225 0 2.6 12
3 14 0 2.16935 0 2.6 12
4 4 0.1404 3.20367 0.95 2.6 12
4 5 0.1404 3.20367 0.95 2.6 12
4 6 0.11431 2.73773 0.47749 2.6 12
4 7 0.11787 4.16409 2.56398 2.6 12
4 8 0.1158 3.77119 1.8723 2.6 12
4 9 0.00907 3.19381 0.96402 2.6 12
4 10 0.0078 3.20367 0.95 2.6 12
4 11 0.0078 3.20367 0.95 2.6 12
4 12 0.00434 2.73773 0.47749 2.6 12
4 13 0.00079 4.16409 2.56398 2.6 12
4 14 0.00285 3.77119 1.8723 2.6 12
5 5 0.1404 3.20367 0.95 2.6 12
5 6 0.11431 2.73773 0.47749 2.6 12
5 7 0.11787 4.16409 2.56398 2.6 12
5 8 0.1158 3.77119 1.8723 2.6 12
5 9 0.00907 3.19381 0.96402 2.6 12
5 10 0.0078 3.20367 0.95 2.6 12
5 11 0.0078 3.20367 0.95 2.6 12
5 12 0.00434 2.73773 0.47749 2.6 12
5 13 0.00079 4.16409 2.56398 2.6 12
5 14 0.00285 3.77119 1.8723 2.6 12
6 6 0.09304 2.2718 0.24 2.6 12
6 7 0.09589 3.69815 1.28872 2.6 12
6 8 0.09424 3.30525 0.94106 2.6 12
6 9 0.00726 2.72788 0.48454 2.6 12
6 10 0.00624 2.73773 0.47749 2.6 12
6 11 0.00624 2.73773 0.47749 2.6 12
6 12 0.00348 2.2718 0.24 2.6 12
6 13 0.00063 3.69815 1.28872 2.6 12
6 14 0.00229 3.30525 0.94106 2.6 12
7 7 0.09874 5.1245 6.92 2.6 12
7 8 0.09708 4.7316 5.0532 2.6 12
7 9 0.00726 4.15423 2.60182 2.6 12
7 10 0.00624 4.16409 2.56398 2.6 12
7 11 0.00624 4.16409 2.56398 2.6 12
7 12 0.00348 3.69815 1.28872 2.6 12
7 13 0.00063 5.1245 6.92 2.6 12
7 14 0.00229 4.7316 5.0532 2.6 12
8 8 0.09543 4.3387 3.69 2.6 12
8 9 0.00726 3.76133 1.89993 2.6 12
8 10 0.00624 3.77119 1.8723 2.6 12
8 11 0.00624 3.77119 1.8723 2.6 12
8 12 0.00348 3.30525 0.94106 2.6 12
8 13 0.00063 4.7316 5.0532 2.6 12
8 14 0.00229 4.3387 3.69 2.6 12
9 9 0 3.18395 0.97825 2.6 12
9 10 0 3.19381 0.96402 2.6 12
9 11 0 3.19381 0.96402 2.6 12
9 12 0 2.72788 0.48454 2.6 12
9 13 0 4.15423 2.60182 2.6 12
9 14 0 3.76133 1.89993 2.6 12
10 10 0 3.20367 0.95 2.6 12
10 11 0 3.20367 0.95 2.6 12
10 12 0 2.73773 0.47749 2.6 12
10 13 0 4.16409 2.56398 2.6 12
10 14 0 3.77119 1.8723 2.6 12
11 11 0 3.20367 0.95 2.6 12
11 12 0 2.73773 0.47749 2.6 12
11 13 0 4.16409 2.56398 2.6 12
11 14 0 3.77119 1.8723 2.6 12
12 12 0 2.2718 0.24 2.6 12
12 13 0 3.69815 1.28872 2.6 12
12 14 0 3.30525 0.94106 2.6 12
13 13 0 5.1245 6.92 2.6 12
13 14 0 4.7316 5.0532 2.6 12
14 14 0 4.3387 3.69 2.6 12

Bond Coeffs # harmonic/omp

1 10000 0.9572
2 10000 0.24034
3 10000 1.278
4 500 0
5 500 0
6 500 0
7 500 0
8 500 0
9 500 0

Angle Coeffs # harmonic/omp

1 10000 104.52
2 10000 52.26
3 10000 116.8

Improper Coeffs # harmonic/omp

1 10000 0

Atoms # full

168 42 3 -1.11466 -9.155296868976377 -12.251819630461979 13.6870864566338 0 1 0
3724 788 13 -4.73310092 -12.394301306909732 -9.360151983826572 -19.618883606306543 0 0 0
3183 70 9 -1.71637987 -7.124397777343597 -11.317844766012463 -18.878692253829808 -2 0 0
280 70 3 -1.11466 -6.956017696771069 -11.499843532454273 -19.033831087194667 -2 0 0
1539 385 2 0.55733 -8.159034702927709 -8.339467043279411 -16.851682227027585 0 -2 0
277 70 1 1.71637987 -7.081493139930069 -11.340083943269347 -18.91906832489027 -2 0 0
1758 440 2 0.55733 -10.570970298637375 -12.212576564636603 7.558350314072218 0 -1 0
259 65 2 0.55733 -9.030631418398498 -10.733866120670895 -18.586120968885854 2 2 0
258 65 2 0.55733 -10.535038085652518 -10.77097708418926 -18.403365730426 2 2 0
260 65 3 -1.11466 -9.741908550799225 -10.722149903997165 -18.150362674936122 2 2 0
3145 65 9 -1.71637987 -9.746967935731075 -10.689036562168074 -17.844431173153716 2 2 0
257 65 1 1.71637987 -9.714674307205593 -10.701525124762387 -17.91636107972751 2 2 0
165 42 1 1.71637987 -8.995799119191334 -12.088153968336613 13.73606596259953 0 1 0
2251 563 2 0.55733 -9.008227244139935 -11.86558506847471 -14.618647664065321 3 0 0
2249 563 1 1.71637987 -8.725614923725006 -11.454533619691464 -13.803358685340454 3 0 0
2252 563 3 -1.11466 -8.9069171193391 -11.393423936247753 -13.938401530660002 3 0 0
3733 563 9 -1.71637987 -8.658432332779823 -11.493664119651987 -13.750008055978089 3 0 0
2250 563 2 0.55733 -9.34429991536092 -10.739920129949853 -13.66131733153403 3 0 0
1139 285 2 0.55733 -7.686110435218009 -12.221332923511499 12.180018320789191 1 -3 0
1838 460 2 0.55733 -8.683021055277393 -12.386874901114064 -12.215069504055329 -1 1 0
1498 375 2 0.55733 -10.064509475075507 -11.866483156656196 -16.592706810224655 0 0 0
607 152 2 0.55733 -11.851890221101714 -10.670026806783165 -12.6351567441668 -1 0 0
278 70 2 0.55733 -7.298027369939075 -12.261256073809042 -19.06287150985232 -2 0 0
3389 271 9 -1.71637987 -6.880526367482172 -9.481783975223651 -16.603537951855614 1 -1 0
1081 271 1 1.71637987 -6.827798388607946 -9.507406709578927 -16.607565086584053 1 -1 0
2123 531 2 0.55733 -11.009930796771883 -11.961864559674689 2.635481726999681 1 0 0
1760 440 3 -1.11466 -11.391403270128478 -12.288745603588945 7.421618184478855 0 -1 0
1084 271 3 -1.11466 -6.675526936425912 -9.562597563812924 -16.774898548128014 1 -1 0
1082 271 2 0.55733 -6.937371905515023 -10.150144260118148 -17.30693610507306 1 -1 0
611 153 2 0.55733 -8.557427484071784 -11.621830901432183 -0.7344422925119657 -1 0 0
930 233 2 0.55733 -6.369205869446025 -8.928092071213976 -0.998681878666533 0 1 0
1282 321 2 0.55733 -10.632379332222028 -11.291351491405367 10.9178476616529 -1 2 0
608 152 3 -1.11466 -11.618550671182511 -9.920658892245873 -12.917691630145443 -1 0 0
2600 650 3 -1.11466 -8.599712617386576 -8.323326423317917 -12.35267461399346 2 1 0
802 201 2 0.55733 -8.42497058305446 -10.836785269460844 -7.049085997779164 -2 -1 0
1576 394 3 -1.11466 -11.631574605810188 -11.880466027118759 -10.605214530382906 0 -1 0
1573 394 1 1.71637987 -11.454959282469007 -12.00274642200551 -10.708380488803327 0 -1 0
3443 339 9 -1.71637987 -7.673257383887673 -10.079553042760734 -10.188423329486161 -1 -3 0
1353 339 1 1.71637987 -7.714432542429534 -10.138962857266941 -10.140241890705806 -1 -3 0
1354 339 2 0.55733 -8.137856868148603 -10.906034744282637 -10.523435400323802 -1 -3 0
1575 394 2 0.55733 -11.382059897641106 -11.227892561586344 -10.151658809398366 0 -1 0
2632 658 3 -1.11466 -12.316542467260957 -12.23469813075403 -14.994174885001147 2 -1 0
1759 440 2 0.55733 -12.029479486335969 -12.323951986720319 7.958898535405341 0 -1 0
630 158 2 0.55733 -11.27996862181122 -8.935711389570526 -14.686285899882275 1 -1 0
1356 339 3 -1.11466 -7.779149720948628 -10.335495574085137 -10.031040188235977 -1 -3 0
2599 650 2 0.55733 -8.106842032824455 -8.913337933537017 -12.027558527160059 2 1 0
2279 570 2 0.55733 -9.732529080397395 -11.001833555541591 -5.545829351435843 1 -2 0
2277 570 1 1.71637987 -9.786060159913859 -11.379720469974307 -6.424198866906329 1 -2 0
1206 302 2 0.55733 -10.683762271610682 -10.676398767856679 -7.832230017122543 -1 0 0
1205 302 1 1.71637987 -11.203805560185272 -10.26112884626971 -8.518331669810824 -1 0 0
1207 302 2 0.55733 -11.803070788376884 -9.679171637757692 -8.05407754539757 -1 0 0
2231 558 2 0.55733 -7.194816570523634 -11.49912628829486 -3.713647802620727 0 1 0
2307 577 2 0.55733 -8.12960366376808 -8.359066778490131 3.0576667876346404 -1 -2 0
1208 302 3 -1.11466 -11.219193195245351 -10.22746675147769 -8.287574292695002 -1 0 0
686 172 2 0.55733 -7.593963530988007 -8.709733086160542 -7.277279442183638 3 -1 0
640 160 3 -1.11466 -8.826476688819186 -10.275878103975966 -3.76981952360381 0 0 0
638 160 2 0.55733 -8.489711766665447 -9.63250753591036 -4.17889202497034 0 0 0
3283 160 9 -1.71637987 -8.703174815959844 -10.543569058067598 -3.858560288682952 0 0 0
637 160 1 1.71637987 -8.738464801561596 -10.487242175283896 -3.8297331188195813 0 0 0
3388 302 9 -1.71637987 -11.2048171107929 -10.25708881676085 -8.597904683429825 -1 0 0
3781 570 9 -1.71637987 -9.743575811935228 -11.326614871250912 -6.506982772706825 1 -2 0
2280 570 3 -1.11466 -9.812563533979471 -11.489967005645589 -6.217800321836698 1 -2 0
801 201 1 1.71637987 -7.547045599070936 -10.634483230932894 -7.3720777444339 -2 -1 0
804 201 3 -1.11466 -7.613245447863865 -10.818475885488658 -7.241944243162873 -2 -1 0
3312 201 9 -1.71637987 -7.529461473471118 -10.56285273153289 -7.426424826658075 -2 -1 0
1355 339 2 0.55733 -7.610769197031867 -10.352816020031756 -9.214608292991025 -1 -3 0
1559 390 2 0.55733 -11.06813277307128 -9.517798795030721 17.214594438712414 1 -1 0
2278 570 2 0.55733 -9.967053888755515 -12.308282577911616 -6.278903045873013 1 -2 0
1631 408 2 0.55733 -8.591212784564448 -9.95627936402598 16.325823928451772 1 0 0
1140 285 3 -1.11466 -7.539139833402411 -12.219853139040136 11.35909119749615 1 -3 0
279 70 2 0.55733 -6.235172427883654 -11.217195519215966 -19.348467418625223 -2 0 0
1629 408 1 1.71637987 -8.545803761676618 -9.663316450155431 15.417668426281617 1 0 0
681 171 1 1.71637987 -8.50002867943113 -11.425389058815096 18.636608230830852 0 1 0
94 24 2 0.55733 -12.223565651472699 -12.252134282978714 -5.067977606564342 -4 -1 0
1751 438 2 0.55733 -12.090887021835318 -9.680268353658429 10.110714997590046 2 0 0
3343 771 12 -0.68760387 -11.158230116865882 -8.80520406974264 -17.618977798102595 1 0 0
803 201 2 0.55733 -6.99782455929339 -11.348315969576213 -7.051098049407176 -2 -1 0
661 166 1 1.71637987 -11.711523108316282 -9.806065133924156 0.4389316357359463 -2 1 0
662 166 2 0.55733 -11.106666424349758 -10.458456616869558 0.7898106911360416 -2 1 0
3274 166 9 -1.71637987 -11.74316560245432 -9.804562474684198 0.3459161857723324 -2 1 0
610 153 2 0.55733 -9.100570335923916 -10.248666506301838 -1.0768644631987103 -1 0 0
2121 531 1 1.71637987 -10.453065755313622 -11.617381634661164 1.939799703713051 1 0 0
612 153 3 -1.11466 -8.663381320862793 -10.801248044373981 -0.6297312042023802 -1 0 0
932 233 3 -1.11466 -6.769880945679583 -8.417904964150573 -1.523698818753226 0 1 0
609 153 1 1.71637987 -8.552921376186655 -10.71090834276665 -0.44314314549547 -1 0 0
3287 153 9 -1.71637987 -8.528102726457318 -10.683638841191463 -0.37010805555053733 -1 0 0
639 160 2 0.55733 -9.419577238074778 -10.296375366019484 -3.1830423740772718 0 0 0
931 233 2 0.55733 -6.896119543233642 -8.476713759982855 -2.346611160265914 0 1 0
368 92 3 -1.11466 -7.360138078737134 -9.671468205071015 1.5711239220063913 0 -2 0
3703 580 9 -1.71637987 -10.396839143029922 -9.363482146610702 -1.948631931064295 3 1 0
2317 580 1 1.71637987 -10.463580694636104 -9.311695237963024 -1.9158398396635528 3 1 0
2320 580 3 -1.11466 -10.53541055204513 -9.171186030830762 -1.743253925318225 3 1 0
664 166 3 -1.11466 -11.582360775231178 -9.7902011259058 0.6314850499386948 -2 1 0
1803 451 2 0.55733 -8.002739174066972 -10.540834440785794 3.019426681344849 0 2 0
2318 580 2 0.55733 -10.852364427162946 -9.566295905109557 -1.0795326743844569 3 1 0
2122 531 2 0.55733 -9.574097965816511 -11.591209913461586 2.3173822509798274 1 0 0
2124 531 3 -1.11466 -10.388489706975422 -11.679894705568953 2.154118630800007 1 0 0
2140 535 3 -1.11466 -12.039995008510507 -8.995856441650089 6.445352832263825 0 0 0
3185 92 9 -1.71637987 -7.470582457176999 -9.486479126793675 1.8352293862956424 0 -2 0
365 92 1 1.71637987 -7.428932375948754 -9.510462206355868 1.727642948658354 0 -2 0
895 224 2 0.55733 -6.383077560538473 -8.863596768815082 -10.44933666535813 -2 -2 0
1801 451 1 1.71637987 -8.19124805549903 -11.175805874232555 3.710168650932633 0 2 0
3552 451 9 -1.71637987 -8.207165499158775 -11.231353753609087 3.697729101380324 0 2 0
1804 451 3 -1.11466 -8.230299436495224 -10.945622554583945 3.713778191402167 0 2 0
3737 408 9 -1.71637987 -8.539246540766651 -9.590793657233034 15.44839054423969 1 0 0
366 92 2 0.55733 -7.942387235946712 -9.88978607311773 1.01478268236482 0 -2 0
663 166 2 0.55733 -11.669597276372043 -9.075747973237283 1.053194868131024 -2 1 0
3683 531 9 -1.71637987 -10.49772884747516 -11.602480095155034 1.8490902855679154 1 0 0
167 42 2 0.55733 -9.673951297578004 -12.06136397670798 13.062411234877988 0 1 0
605 152 1 1.71637987 -11.58634366908642 -9.909638905979897 -13.149765651896212 -1 0 0
367 92 2 0.55733 -6.5730519669329635 -9.933141335158634 1.6651121121529384 0 -2 0
1584 396 3 -1.11466 -6.527273232252076 -8.571096248958202 11.640012309650977 0 0 0
3077 771 6 1.68760387 -11.168253418413553 -8.811246075051283 -17.636610126190746 1 0 0
606 152 2 0.55733 -11.480303534093434 -9.20604569432802 -12.510054143430505 -1 0 0
231 58 2 0.55733 -6.9838118349761835 -11.844588138015073 -13.720556731644862 -5 -1 0
1137 285 1 1.71637987 -7.312414174780849 -12.202247460777752 11.298926137657872 1 -3 0
2751 688 2 0.55733 -8.30943198241927 -8.63980465089606 9.079549143385833 1 0 0
1802 451 2 0.55733 -8.57195199169913 -10.660221979096265 4.4201843453220055 0 2 0
1348 337 3 -1.11466 -9.356441630473613 -9.418536012172869 6.0538393966023705 1 -1 0
3423 337 9 -1.71637987 -9.221186789327472 -9.450043836820754 5.759362094935562 1 -1 0
2319 580 2 0.55733 -10.42565489157604 -8.356010258688823 -1.886520846527424 3 1 0
3835 655 9 -1.71637987 -9.100039888847535 -11.928355523424171 8.492101141118312 1 1 0
2620 655 3 -1.11466 -8.823656737076993 -11.864102219837761 8.443649108007637 1 1 0
1346 337 2 0.55733 -10.184812836699146 -9.320676202128748 6.019971831262021 1 -1 0
2137 535 1 1.71637987 -11.808311502418867 -8.96909821995218 6.475741766649636 0 0 0
3818 688 9 -1.71637987 -8.05825650309415 -9.1405043302007 8.229992326774548 1 0 0
2749 688 1 1.71637987 -8.017454189067092 -9.0824717258284 8.28283630075486 1 0 0
1750 438 2 0.55733 -11.134245801219361 -9.816422082935997 8.9427126952707 2 0 0
2752 688 3 -1.11466 -7.912076848930862 -8.90433842669566 8.394617775646632 1 0 0
1752 438 3 -1.11466 -11.37266991579135 -9.886895181219103 9.738836110360433 2 0 0
2750 688 2 0.55733 -7.20128901718312 -8.642446389111747 8.044105183939392 1 0 0
2618 655 2 0.55733 -8.718825576278736 -11.044002015937794 8.339616357533457 1 1 0
1630 408 2 0.55733 -8.636579760307669 -10.458682895767048 14.896841005580828 1 0 0
3661 535 9 -1.71637987 -11.718645439883344 -8.972075143436005 6.465374556778279 0 0 0
211 53 2 0.55733 -6.633828446559155 -11.07064849376126 9.528580629166779 -1 -2 0
2617 655 1 1.71637987 -9.043925557935278 -11.929247618776728 8.492198865597343 1 1 0
1347 337 2 0.55733 -8.838330393078333 -9.43497304566718 6.707601912553125 1 -1 0
1345 337 1 1.71637987 -9.252858906334446 -9.444705595011353 5.84365121107566 1 -1 0
3573 438 9 -1.71637987 -11.170651363245625 -10.007227949421573 9.927756043617793 2 0 0
1284 321 3 -1.11466 -10.775008168495148 -11.69913395214146 11.63134066766273 -1 2 0
1749 438 1 1.71637987 -11.212694539693985 -9.980011694452317 9.882162178576689 2 0 0
3256 152 9 -1.71637987 -11.570754140124288 -9.88443660187705 -13.211671120218497 -1 0 0
827 207 2 0.55733 -6.7737938590544955 -10.954820795152404 18.649050606084135 -2 0 0
1632 408 3 -1.11466 -8.57352030423413 -9.881597757171928 15.495692065221148 1 0 0
2229 558 1 1.71637987 -6.615372408237597 -12.243696062939984 -3.5482090940498194 0 1 0
3532 390 9 -1.71637987 -10.736757772712478 -10.330722848888584 17.68314015186302 1 -1 0
3259 171 9 -1.71637987 -8.434390591916236 -11.39204645499812 18.64727211129074 0 1 0
1581 396 1 1.71637987 -6.430837351124607 -8.6174546457176 11.849953955415776 0 0 0
3413 285 9 -1.71637987 -7.237035522769886 -12.182398619536315 11.277979904850843 1 -3 0
1558 390 2 0.55733 -11.631573890248958 -10.693555181704976 17.98738386716502 1 -1 0
1560 390 3 -1.11466 -11.026633363956703 -10.228424760520765 17.651073499065575 1 -1 0
3542 394 9 -1.71637987 -11.405067215488478 -12.017785690261261 -10.756663341894562 0 -1 0
3522 396 9 -1.71637987 -6.38412239718703 -8.606278664831157 11.924294621272336 0 0 0
3582 440 9 -1.71637987 -11.460206360059793 -12.340898088568235 7.1301810176903615 0 -1 0
1283 321 2 0.55733 -11.476669272803523 -11.798536678257765 12.070330168259638 -1 2 0
684 171 3 -1.11466 -8.625234548246349 -11.526521010748779 18.469602836596827 0 1 0
682 171 2 0.55733 -9.280047781678427 -11.083322104753933 18.200474187523366 0 1 0
1706 427 2 0.55733 -6.423076208491656 -9.686081654235988 16.015663426188286 0 0 0
1987 497 2 0.55733 -9.644222915652774 -8.762923655683192 11.19067254788348 1 -1 0
1557 390 1 1.71637987 -10.810848922327763 -10.310197050736297 17.684438325736988 1 -1 0
683 171 2 0.55733 -8.34388801382098 -12.276432884248573 18.23176130140127 0 1 0
1138 285 2 0.55733 -8.064763103537631 -12.267854754147127 10.712974031656142 1 -3 0
1757 440 1 1.71637987 -11.452258804254908 -12.302558505314453 7.194575386105051 0 -1 0
1574 394 2 0.55733 -12.39630415586022 -12.175145295224187 -10.75964400749046 0 -1 0
2232 558 3 -1.11466 -6.7923626536796515 -12.166548084037412 -3.415027585815179 0 1 0
3174 42 9 -1.71637987 -8.957710499204925 -12.043036657878895 13.748438818451836 0 1 0
1582 396 2 0.55733 -7.350505756600851 -8.43662356172905 11.65886850800912 0 0 0
3000 750 3 -1.11466 -12.332056689667105 -8.881192472257867 -5.839752783175396 0 -1 0
2982 746 2 0.55733 -10.978641265859167 -8.709592112356354 -10.306592601088303 -1 1 0
3277 158 9 -1.71637987 -11.010507316271934 -8.36725777118998 -15.463917506274795 1 -1 0
629 158 1 1.71637987 -10.979617477595147 -8.364380337968923 -15.392257557687318 1 -1 0
1281 321 1 1.71637987 -10.584498968832962 -11.805291550725505 11.72223484333244 -1 2 0
3422 321 9 -1.71637987 -10.520685294925247 -11.850693917149428 11.790347494038937 -1 2 0
3536 558 9 -1.71637987 -6.568816113024986 -12.299239611630945 -3.6009209023231517 0 1 0
632 158 3 -1.11466 -10.852181624056527 -8.448996263360508 -15.211686140647677 1 -1 0
2629 658 1 1.71637987 -12.416404684926547 -12.348892477868816 -14.814518954336174 2 -1 0
2138 535 2 0.55733 -12.264610057717725 -9.722478447130788 6.102436373847658 0 0 0
2998 750 2 0.55733 -11.649376091691085 -8.407380790207537 -5.761382670458979 0 -1 0
1699 425 2 0.55733 -11.865419017113984 -5.987729508664983 5.247049408032623 1 1 0
794 199 2 0.55733 -12.096729382225222 -5.000776095401004 -4.744270048096522 0 -1 0
2352 588 3 -1.11466 -12.15053760238193 -7.786157443488878 15.080745206142458 2 0 0
631 158 2 0.55733 -10.053814395770031 -8.210484618174723 -15.203214333921313 1 -1 0
706 177 2 0.55733 -6.963095642810363 -6.487287431751749 -19.583201510241874 -2 1 0
2546 637 2 0.55733 -11.849516846258483 -4.744081437656159 1.2527545698030351 1 1 0
687 172 2 0.55733 -7.804292239568535 -7.950660131302017 -5.981674196572522 3 -1 0
884 221 3 -1.11466 -6.621231787582099 -4.814115976628273 -11.626914593508618 -1 -1 0
1538 385 2 0.55733 -8.652005710775569 -7.012774027106528 -16.30780667998628 0 -2 0
3269 172 9 -1.71637987 -7.6798790387449 -7.7768337859169225 -6.938324920209062 3 -1 0
2759 690 2 0.55733 -8.356771890721086 -6.809088171694273 -13.767738295461687 2 1 0
3752 690 9 -1.71637987 -8.342107808277687 -6.123786782904433 -14.460119249327283 2 1 0
2757 690 1 1.71637987 -8.384102678814942 -6.107964545233907 -14.417452342255878 2 1 0
2760 690 3 -1.11466 -8.528919510822396 -6.139468916807673 -14.23348187128713 2 1 0
2586 647 2 0.55733 -11.598866202052683 -5.056433327166969 -13.49760823040745 2 -1 0
3833 647 9 -1.71637987 -10.671969713192317 -4.692187250286911 -13.552522962022755 2 -1 0
2585 647 1 1.71637987 -10.71908781373566 -4.683859628478383 -13.5499676864779 2 -1 0
2588 647 3 -1.11466 -10.905415634780887 -4.629690711946654 -13.682177256455342 2 -1 0
3790 691 9 -1.71637987 -11.850745241207443 -5.042024009031272 -16.70759050617887 1 -1 0
3358 233 9 -1.71637987 -6.901580432107315 -8.173350193589906 -1.418341376387124 0 1 0
2761 691 1 1.71637987 -11.883808839643983 -5.08575352504688 -16.677652585548948 1 -1 0
2758 690 2 0.55733 -9.130718880960512 -5.565585001754589 -14.158900021753466 2 1 0
2764 691 3 -1.11466 -12.094768610660312 -5.17112317531792 -16.61356055213057 1 -1 0
3373 221 9 -1.71637987 -6.750302066742879 -4.695283919827328 -11.879603620329336 -1 -1 0
881 221 1 1.71637987 -6.704689859718033 -4.728958605248585 -11.829571104444973 -1 -1 0
3877 746 9 -1.71637987 -10.730016179901389 -8.149805836351376 -11.1055908477987 -1 1 0
1221 306 1 1.71637987 -6.874562480146166 -4.721479248817514 -16.817452388872244 0 0 0
3391 306 9 -1.71637987 -6.904960340439235 -4.742273434385652 -16.885103654962823 0 0 0
1224 306 3 -1.11466 -6.742705615762563 -4.707531590609948 -16.62379339061175 0 0 0
3714 588 9 -1.71637987 -12.413204968713517 -7.792896489880175 15.24430893870252 2 0 0
882 221 2 0.55733 -7.037192069978489 -5.473667445441825 -11.33109479086832 -1 -1 0
3686 385 9 -1.71637987 -8.905056837094168 -7.684467650046078 -17.004434135753772 0 -2 0
190 48 2 0.55733 -9.292225181435112 -8.148576406069418 16.08884966801739 0 -2 0
2763 691 2 0.55733 -12.32951655832017 -5.858212378913178 -17.023982689840462 1 -1 0
1985 497 1 1.71637987 -8.974351574220357 -8.18406692204532 10.8287536786124 1 -1 0
1537 385 1 1.71637987 -8.855379190014284 -7.690617417267974 -16.953541281546613 0 -2 0
1540 385 3 -1.11466 -8.674906321024267 -7.684822214973899 -16.801395177049056 0 -2 0
2909 728 1 1.71637987 -8.338535742925584 -7.462610234066437 -19.745246829681314 0 0 0
2349 588 1 1.71637987 -12.34988487548116 -7.757754193272246 15.199702122789656 2 0 0
2911 728 2 0.55733 -8.451959753873117 -7.350336578877846 -18.80389884398645 0 0 0
846 212 2 0.55733 -6.5603011533906725 -6.826512757773762 -13.922545400253895 -1 0 0
3045 762 1 1.71637987 -8.59707894200095 -4.772151314944557 9.690699647317782 0 1 0
1367 342 2 0.55733 -8.489995577843757 -7.1015865170380525 -4.378746053348108 0 -1 0
3430 342 9 -1.71637987 -8.045545459515372 -8.011162344668811 -4.36279018606836 0 -1 0
1368 342 3 -1.11466 -7.93071896013265 -7.721134834576625 -4.370734633861503 0 -1 0
3839 722 9 -1.71637987 -10.401894297654481 -5.481584866333563 -10.242934444489919 3 -2 0
2885 722 1 1.71637987 -10.434610980606463 -5.371972241174688 -10.280945766216304 3 -2 0
2343 586 2 0.55733 -12.061439393372375 -7.309327118341736 12.087533561050622 3 -1 0
780 195 3 -1.11466 -7.673700199059827 -6.449588304271254 -9.882606454642156 0 -1 0
777 195 1 1.71637987 -7.575373171126077 -6.316408694381 -9.718060116616648 0 -1 0
447 112 2 0.55733 -9.25449918247713 -6.669920913575731 -7.613561948398541 0 -1 0
446 112 2 0.55733 -10.143744715779464 -6.1489964547271825 -8.725523458981462 0 -1 0
448 112 3 -1.11466 -9.970256875390678 -6.403552761780684 -7.9493598130701715 0 -1 0
3236 112 9 -1.71637987 -10.189527474668312 -6.358587000961638 -7.7400768702954865 0 -1 0
445 112 1 1.71637987 -10.153436914130417 -6.397757779880309 -7.800738515767591 0 -1 0
1924 481 3 -1.11466 -10.39462794049772 -4.743373621990547 -5.940708012133605 1 0 0
1921 481 1 1.71637987 -10.550711995394137 -4.576223604650586 -5.887437348043049 1 0 0
3295 195 9 -1.71637987 -7.580868159265641 -6.285247246959837 -9.731519123101675 0 -1 0
1366 342 2 0.55733 -7.104992370646526 -7.707811516875859 -4.489372807904344 0 -1 0
833 209 1 1.71637987 -8.114343000775655 -5.1098795678077 -4.804248738708762 1 1 0
3296 209 9 -1.71637987 -8.199807339868332 -5.144973645644102 -4.836528045895362 1 1 0
778 195 2 0.55733 -8.392619314988586 -6.1564146783265405 -10.188322367634623 0 -1 0
2888 722 3 -1.11466 -10.439630573828136 -5.141423765831153 -10.315924708639553 3 -2 0
816 204 3 -1.11466 -8.472305697933121 -5.756166286360627 18.21566157175607 3 -2 0
1923 481 2 0.55733 -9.754063950328412 -4.806299133599076 -5.4096649485850286 1 0 0
2983 746 2 0.55733 -10.642212814522857 -7.2664949881121474 -10.624454460833991 -1 1 0
3587 481 9 -1.71637987 -10.602305549253122 -4.517084825456834 -5.884868746366495 1 0 0
1922 481 2 0.55733 -10.572981920529095 -5.177808203433962 -6.62984259109686 1 0 0
707 177 2 0.55733 -6.552207930265683 -5.663707058454728 -18.378765776389645 -2 1 0
1365 342 1 1.71637987 -8.020522856551297 -7.933076115861385 -4.330209467790098 0 -1 0
2887 722 2 0.55733 -9.715920133226433 -4.818813586210897 -10.581244341475477 3 -2 0
3325 204 9 -1.71637987 -8.704691269231043 -5.928916355456975 18.148624665479325 3 -2 0
2035 509 2 0.55733 -9.426528638725571 -5.669674745147152 15.410398162041757 0 0 0
2886 722 2 0.55733 -11.171908651799315 -4.772903769891425 -10.157727501304294 3 -2 0
1641 411 1 1.71637987 -6.376948205608327 -6.118462061827522 16.580467004276 -2 2 0
779 195 2 0.55733 -7.2492079719160945 -7.143373822455265 -10.065725122702634 0 -1 0
191 48 2 0.55733 -9.3734165271298 -6.910082807080482 16.958692700746596 0 -2 0
2350 588 2 0.55733 -12.245425891472122 -7.981950144643707 14.275688614247214 2 0 0
3161 48 9 -1.71637987 -9.900198127265984 -7.35863055388984 16.226312044553413 0 -2 0
685 172 1 1.71637987 -7.6853041030495195 -7.825680744892723 -6.922073919497474 3 -1 0
86 22 2 0.55733 -8.510976599544 -5.2604866486110975 11.682117614460857 -4 0 0
2335 584 2 0.55733 -7.872158428962945 -6.811960851163658 -1.0408242298025625 0 -1 0
3745 637 9 -1.71637987 -10.936481242459022 -4.8352107673347975 0.9202959689654638 1 1 0
2454 614 2 0.55733 -8.397191576573947 -5.638709908572666 1.4488817233727853 0 -2 0
813 204 1 1.71637987 -8.658689788091424 -5.895057199322881 18.188130333545228 3 -2 0
2333 584 1 1.71637987 -8.356308291408746 -6.179901886878297 -0.5107805174462463 0 -1 0
720 180 3 -1.11466 -11.032335103352676 -7.538749504964398 2.3319697173449585 -1 1 0
3304 180 9 -1.71637987 -11.233738367262228 -7.724682038586947 2.2049724957716257 -1 1 0
717 180 1 1.71637987 -11.196436641926374 -7.677254980628866 2.2343951176881833 -1 1 0
3719 584 9 -1.71637987 -8.333875493545982 -6.124378124090173 -0.46791237222832116 0 -1 0
785 197 1 1.71637987 -10.955652728216265 -6.40842080074819 -1.6470212663902646 0 0 0
718 180 2 0.55733 -11.228321858936749 -6.728548874439637 2.3478648832913733 -1 1 0
719 180 2 0.55733 -10.353538730252582 -7.939743600581274 2.6013660269213768 -1 1 0
2336 584 3 -1.11466 -8.442816845712485 -6.331017310038995 -0.6678947681842305 0 -1 0
2334 584 2 0.55733 -9.271069321475368 -6.3008107591226885 -0.7600846475223302 0 -1 0
3318 197 9 -1.71637987 -10.918016286134996 -6.460528802010662 -1.6470147050883088 0 0 0
788 197 3 -1.11466 -10.951605845740872 -6.1995078289814645 -1.5447003270068729 0 0 0
2308 577 3 -1.11466 -8.571190705352649 -7.886461022150284 3.585025198077841 -1 -2 0
2305 577 1 1.71637987 -8.60084410533755 -7.665066916906013 3.5154366337151144 -1 -2 0
3742 577 9 -1.71637987 -8.637908263846231 -7.59578325618964 3.482683178424621 -1 -2 0
3646 497 9 -1.71637987 -8.916960484756938 -8.214120840342309 10.782989795675796 1 -1 0
787 197 2 0.55733 -11.061700568698402 -6.2222432000398396 -0.7168802953832054 0 0 0
2453 614 1 1.71637987 -8.312948205370994 -5.3357119708513165 2.353506324301016 0 -2 0
2456 614 3 -1.11466 -8.387926481344872 -5.544841161192445 2.2784079681028215 0 -2 0
3765 614 9 -1.71637987 -8.286731995920817 -5.26988501684631 2.3919807482336033 0 -2 0
2455 614 2 0.55733 -8.602870838083016 -6.0747881890810485 2.8865284544298095 0 -2 0
2545 637 1 1.71637987 -10.947206305000163 -4.771706359393548 0.9405582763636583 1 1 0
786 197 2 0.55733 -10.827430093829193 -5.551890364144895 -2.056846956064073 0 0 0
2548 637 3 -1.11466 -11.051341715752448 -4.599647801150342 1.0618139277068028 1 1 0
1644 411 3 -1.11466 -6.386159382574365 -6.232951430862435 16.375557875052852 -2 2 0
1642 411 2 0.55733 -7.050256045160491 -6.056410253988403 15.902357820029115 -2 2 0
688 172 3 -1.11466 -7.691307220907244 -8.029042651368215 -6.804848846198512 3 -1 0
2981 746 1 1.71637987 -10.752030117651357 -8.12622103995232 -11.030272310498846 -1 1 0
1467 367 2 0.55733 -10.593249600878627 -5.611034389968027 12.012096720668778 1 0 0
3838 700 9 -1.71637987 -11.232975121458049 -6.429182194272907 8.76713127991068 2 3 0
2797 700 1 1.71637987 -11.173576799643515 -6.414903992633323 8.738589259588599 2 3 0
2800 700 3 -1.11466 -10.973008424282733 -6.425740461531645 8.616110591238801 2 3 0
2798 700 2 0.55733 -10.81608637130756 -5.760973436095244 8.137902747911406 2 3 0
2351 588 2 0.55733 -11.458646219955025 -7.680055047565088 15.535906998234777 2 0 0
1988 497 3 -1.11466 -9.147039664576058 -8.127363976468503 10.977001566806154 1 -1 0
2034 509 2 0.55733 -9.402729746200336 -4.223190923405655 14.9593574585059 0 0 0
1223 306 2 0.55733 -7.171054214811823 -4.625863321015895 -15.912135752040165 0 0 0
2799 700 2 0.55733 -10.532578325374754 -7.124255130791969 8.736379951624949 2 3 0
3110 33 9 -1.71637987 -7.035729718411973 -6.3352326429998085 7.203454309867691 3 0 0
132 33 3 -1.11466 -7.085446527471771 -6.194674301459151 6.979420105938176 3 0 0
131 33 2 0.55733 -7.877212708260493 -6.215017208977913 6.717001362962154 3 0 0
3035 759 2 0.55733 -7.242604449936593 -4.433050778676433 -0.8519295671082645 1 -1 0
2513 629 1 1.71637987 -10.291081547587966 -4.904601338638949 6.791908416883559 -1 1 0
2984 746 3 -1.11466 -10.775742088061866 -8.070632887627307 -10.801189780366835 -1 1 0
836 209 3 -1.11466 -7.898004389161628 -5.028099680228057 -4.765050671039504 1 1 0
814 204 2 0.55733 -7.743674296496354 -6.099889738435798 17.99927891021524 3 -2 0