LAMMPS data file via write_data, version 29 Sep 2021, timestep = 8000000

3910 atoms
14 atom types
3109 bonds
9 bond types
2305 angles
3 angle types
768 impropers
1 improper types

-12.418372 12.418372 xlo xhi
-12.418372 12.418372 ylo yhi
-55.882675 55.882675 zlo zhi

Masses

1 15.2
2 1
3 0.001
4 15.2
5 15.2
6 22.2
7 126.2
8 34.2
9 0.8
10 0.8
11 0.8
12 0.8
13 0.8
14 0.8

PairIJ Coeffs # lj/cut/thole/long/omp

1 1 0.18985 3.18395 0.97825 2.6 12
1 2 0 1.59197 0 2.6 12
1 3 0 1.59197 0 2.6 12
1 4 0.16326 3.19381 0.96402 2.6 12
1 5 0.16326 3.19381 0.96402 2.6 12
1 6 0.13292 2.72788 0.48454 2.6 12
1 7 0.13706 4.15423 2.60182 2.6 12
1 8 0.13466 3.76133 1.89993 2.6 12
1 9 0.01055 3.18395 0.97825 2.6 12
1 10 0.00907 3.19381 0.96402 2.6 12
1 11 0.00907 3.19381 0.96402 2.6 12
1 12 0.00505 2.72788 0.48454 2.6 12
1 13 0.00091 4.15423 2.60182 2.6 12
1 14 0.00332 3.76133 1.89993 2.6 12
2 2 0 0 0 2.6 12
2 3 0 0 0 2.6 12
2 4 0 1.60183 0 2.6 12
2 5 0 1.60183 0 2.6 12
2 6 0 1.1359 0 2.6 12
2 7 0 2.56225 0 2.6 12
2 8 0 2.16935 0 2.6 12
2 9 0 1.59197 0 2.6 12
2 10 0 1.60183 0 2.6 12
2 11 0 1.60183 0 2.6 12
2 12 0 1.1359 0 2.6 12
2 13 0 2.56225 0 2.6 12
2 14 0 2.16935 0 2.6 12
3 3 0 0 0 2.6 12
3 4 0 1.60183 0 2.6 12
3 5 0 1.60183 0 2.6 12
3 6 0 1.1359 0 2.6 12
3 7 0 2.56225 0 2.6 12
3 8 0 2.16935 0 2.6 12
3 9 0 1.59197 0 2.6 12
3 10 0 1.60183 0 2.6 12
3 11 0 1.60183 0 2.6 12
3 12 0 1.1359 0 2.6 12
3 13 0 2.56225 0 2.6 12
3 14 0 2.16935 0 2.6 12
4 4 0.1404 3.20367 0.95 2.6 12
4 5 0.1404 3.20367 0.95 2.6 12
4 6 0.11431 2.73773 0.47749 2.6 12
4 7 0.11787 4.16409 2.56398 2.6 12
4 8 0.1158 3.77119 1.8723 2.6 12
4 9 0.00907 3.19381 0.96402 2.6 12
4 10 0.0078 3.20367 0.95 2.6 12
4 11 0.0078 3.20367 0.95 2.6 12
4 12 0.00434 2.73773 0.47749 2.6 12
4 13 0.00079 4.16409 2.56398 2.6 12
4 14 0.00285 3.77119 1.8723 2.6 12
5 5 0.1404 3.20367 0.95 2.6 12
5 6 0.11431 2.73773 0.47749 2.6 12
5 7 0.11787 4.16409 2.56398 2.6 12
5 8 0.1158 3.77119 1.8723 2.6 12
5 9 0.00907 3.19381 0.96402 2.6 12
5 10 0.0078 3.20367 0.95 2.6 12
5 11 0.0078 3.20367 0.95 2.6 12
5 12 0.00434 2.73773 0.47749 2.6 12
5 13 0.00079 4.16409 2.56398 2.6 12
5 14 0.00285 3.77119 1.8723 2.6 12
6 6 0.09304 2.2718 0.24 2.6 12
6 7 0.09589 3.69815 1.28872 2.6 12
6 8 0.09424 3.30525 0.94106 2.6 12
6 9 0.00726 2.72788 0.48454 2.6 12
6 10 0.00624 2.73773 0.47749 2.6 12
6 11 0.00624 2.73773 0.47749 2.6 12
6 12 0.00348 2.2718 0.24 2.6 12
6 13 0.00063 3.69815 1.28872 2.6 12
6 14 0.00229 3.30525 0.94106 2.6 12
7 7 0.09874 5.1245 6.92 2.6 12
7 8 0.09708 4.7316 5.0532 2.6 12
7 9 0.00726 4.15423 2.60182 2.6 12
7 10 0.00624 4.16409 2.56398 2.6 12
7 11 0.00624 4.16409 2.56398 2.6 12
7 12 0.00348 3.69815 1.28872 2.6 12
7 13 0.00063 5.1245 6.92 2.6 12
7 14 0.00229 4.7316 5.0532 2.6 12
8 8 0.09543 4.3387 3.69 2.6 12
8 9 0.00726 3.76133 1.89993 2.6 12
8 10 0.00624 3.77119 1.8723 2.6 12
8 11 0.00624 3.77119 1.8723 2.6 12
8 12 0.00348 3.30525 0.94106 2.6 12
8 13 0.00063 4.7316 5.0532 2.6 12
8 14 0.00229 4.3387 3.69 2.6 12
9 9 0 3.18395 0.97825 2.6 12
9 10 0 3.19381 0.96402 2.6 12
9 11 0 3.19381 0.96402 2.6 12
9 12 0 2.72788 0.48454 2.6 12
9 13 0 4.15423 2.60182 2.6 12
9 14 0 3.76133 1.89993 2.6 12
10 10 0 3.20367 0.95 2.6 12
10 11 0 3.20367 0.95 2.6 12
10 12 0 2.73773 0.47749 2.6 12
10 13 0 4.16409 2.56398 2.6 12
10 14 0 3.77119 1.8723 2.6 12
11 11 0 3.20367 0.95 2.6 12
11 12 0 2.73773 0.47749 2.6 12
11 13 0 4.16409 2.56398 2.6 12
11 14 0 3.77119 1.8723 2.6 12
12 12 0 2.2718 0.24 2.6 12
12 13 0 3.69815 1.28872 2.6 12
12 14 0 3.30525 0.94106 2.6 12
13 13 0 5.1245 6.92 2.6 12
13 14 0 4.7316 5.0532 2.6 12
14 14 0 4.3387 3.69 2.6 12

Bond Coeffs # harmonic/omp

1 10000 0.9572
2 10000 0.24034
3 10000 1.278
4 500 0
5 500 0
6 500 0
7 500 0
8 500 0
9 500 0

Angle Coeffs # harmonic/omp

1 10000 104.52
2 10000 52.26
3 10000 116.8

Improper Coeffs # harmonic/omp

1 10000 0

Atoms # full

1515 379 2 0.55733 -8.375592757197579 -10.746973067133245 -20.47006489089383 -2 5 0
3512 379 9 -1.71637987 -9.059640232972558 -10.739402620464634 -21.208435917610593 -2 5 0
1516 379 3 -1.11466 -9.041828006733988 -10.603622052534474 -20.949222210388132 -2 5 0
1513 379 1 1.71637987 -9.033023030977686 -10.704590399759216 -21.162491326739143 -2 5 0
1514 379 2 0.55733 -9.736071538343936 -10.166482271163238 -20.799649351278365 -2 5 0
256 64 3 -1.11466 -7.5162667402854035 -6.694704843697448 -19.779154399493073 6 0 0
75 19 2 0.55733 -8.822467113521261 -11.459723818324841 -18.773164558561447 0 -5 0
46 12 2 0.55733 -12.296228995579142 -12.0991408782735 -11.691290907757395 0 4 0
254 64 2 0.55733 -7.892565404929302 -7.189924525946987 -19.22283354908722 6 0 0
284 71 3 -1.11466 -5.556140669719668 -10.851317648563603 -20.224275871185114 7 15 0
281 71 1 1.71637987 -5.447333975958212 -11.019093419247854 -20.348167233264917 7 15 0
2477 620 1 1.71637987 -9.621653168240995 -7.823920295415815 -22.312546309447765 6 1 0
3771 620 9 -1.71637987 -9.626261884479502 -7.792803438648164 -22.302560112011122 6 1 0
2478 620 2 0.55733 -9.011925179136314 -8.365880916544189 -22.811168584630586 6 1 0
2480 620 3 -1.11466 -9.58570906876694 -8.054336792250124 -22.29172247733672 6 1 0
1438 360 2 0.55733 -11.9251967875844 -6.551284118198776 10.257549100022265 -1 4 0
2970 743 2 0.55733 -5.683859692968638 -12.160390230807293 -16.834744825428977 -5 3 0
247 62 2 0.55733 -11.962136942504642 -9.743594079151778 -20.137739215943203 5 -6 0
1440 360 3 -1.11466 -12.013269546626569 -6.555245667145666 9.428290812815444 -1 4 0
446 112 2 0.55733 -11.595527512152909 -7.5225062189613245 12.203197707704796 -6 -8 0
3622 260 9 -1.71637987 -11.666114623876924 -6.788428654258822 -19.864755082241572 13 1 0
1380 345 3 -1.11466 -6.055633122602805 -12.341020956251846 1.7550754778922106 3 -3 0
3118 19 9 -1.71637987 -7.850300167805608 -11.256920493087469 -18.90149325066533 0 -5 0
282 71 2 0.55733 -5.232716682851609 -10.087009126263 -20.3086649730331 7 15 0
2851 713 2 0.55733 -9.422920677892336 -11.698736259094881 1.6145194589850544 -1 7 0
3415 292 9 -1.71637987 -4.8759721046967135 -8.18616567666922 -20.114302502886005 2 9 0
1165 292 1 1.71637987 -4.877803051948487 -8.143205215935364 -20.10612498920603 2 9 0
832 208 3 -1.11466 -12.323302127777009 -11.930859783626637 14.546350810823217 3 -6 0
3112 71 9 -1.71637987 -5.385971238771963 -11.070489315764108 -20.34506372176513 7 15 0
1594 399 2 0.55733 -9.955907606680647 -11.851422024379746 -22.129223291827408 0 -1 0
290 73 2 0.55733 -8.008768072601157 -6.642116819915394 -4.4880966560757845 0 3 0
1748 437 3 -1.11466 -11.93070130906237 -7.736940601023506 -5.2334449580288185 8 0 0
1168 292 3 -1.11466 -4.895175105865331 -7.908751849088713 -20.128114269699886 2 9 0
1437 360 1 1.71637987 -12.205296678342592 -6.44534281011674 9.34810343651777 -1 4 0
283 71 2 0.55733 -6.207383137199761 -11.119601983021912 -19.779532474256865 7 15 0
495 124 2 0.55733 -8.778302482251084 -11.460341196573456 -12.974410003832713 2 -6 0
2372 593 3 -1.11466 -10.673292491067206 -11.708934275340807 -17.848947264576346 -7 0 0
2079 520 2 0.55733 -11.953550496811246 -9.334254038627318 -16.01479077358737 -4 2 0
2749 688 1 1.71637987 -10.265447600986596 -7.776322862618206 -13.379461516349345 1 10 0
3868 724 9 -1.71637987 -8.889874355709862 -8.688147221318031 -18.369614371483156 1 8 0
2893 724 1 1.71637987 -8.915019977881482 -8.73664444858908 -18.37931705614045 1 8 0
2896 724 3 -1.11466 -9.059234527713 -8.921269632722398 -18.374208698762867 1 8 0
2369 593 1 1.71637987 -10.456306888061876 -11.78090762814277 -17.79959824851916 -7 0 0
2972 743 3 -1.11466 -6.239177232631269 -11.666420811671165 -16.456446018442215 -5 3 0
2969 743 1 1.71637987 -6.46016084776927 -11.739006163540461 -16.471211025602823 -5 3 0
3877 743 9 -1.71637987 -6.523055289132976 -11.76955953600324 -16.490817387003975 -5 3 0
568 142 3 -1.11466 -5.588597444715105 -9.549564692816451 -13.03495547457401 3 -3 0
2894 724 2 0.55733 -8.685677575536907 -9.664279837046925 -18.448167761265093 1 8 0
2895 724 2 0.55733 -9.866463953897018 -8.72593989998002 -18.286816043843032 1 8 0
1930 483 2 0.55733 -7.571355527042164 -8.33685175849085 -15.108277994804025 -2 2 0
3254 142 9 -1.71637987 -5.434318775513813 -9.400155410715644 -12.794800918924208 3 -3 0
565 142 1 1.71637987 -5.477042162604853 -9.433989508131566 -12.864392614142355 3 -3 0
566 142 2 0.55733 -6.333276888925974 -9.85380838106133 -12.81764569346784 3 -3 0
1932 483 3 -1.11466 -8.182292464810104 -8.756502847238695 -15.490744547491277 -2 2 0
1929 483 1 1.71637987 -8.304850357075253 -8.89958342448872 -15.350291498405312 -2 2 0
3595 483 9 -1.71637987 -8.332362906073154 -8.923455487899949 -15.289715740672957 -2 2 0
1931 483 2 0.55733 -8.426506436084802 -8.754007684994908 -16.28829689560224 -2 2 0
2971 743 2 0.55733 -6.133424095184381 -10.95654317637536 -16.03115665835434 -5 3 0
3235 124 9 -1.71637987 -8.061115488758201 -10.744450299462034 -12.847875615862447 2 -6 0
494 124 2 0.55733 -8.198045197335226 -10.267095948489724 -13.707910889571306 2 -6 0
493 124 1 1.71637987 -8.111167346227413 -10.778591287456218 -12.905232189357287 2 -6 0
496 124 3 -1.11466 -8.261815495745369 -10.812213281879963 -13.079811601884865 2 -6 0
567 142 2 0.55733 -5.174274369355759 -9.589387509419526 -13.757023625911193 3 -3 0
2077 520 1 1.71637987 -11.420616364266602 -10.106956190127725 -15.835011872987229 -4 2 0
1543 386 2 0.55733 -4.771287544047263 -8.045565196127912 -11.992768739512197 -3 -6 0
2080 520 3 -1.11466 -11.481909745589133 -9.936952640833454 -15.685738765022212 -4 2 0
3633 520 9 -1.71637987 -11.399589821062252 -10.141982290766256 -15.884002671238317 -4 2 0
703 176 2 0.55733 -4.688613713513023 -10.687613526713738 -11.5966829538215 1 6 0
2371 593 2 0.55733 -11.002951277519475 -11.180169084391885 -17.293753648701554 -7 0 0
3685 386 9 -1.71637987 -4.458978317895759 -7.181875011740828 -11.606974327995566 -3 -6 0
2078 520 2 0.55733 -11.192724283009804 -10.038808353635256 -14.909902310223933 -4 2 0
1541 386 1 1.71637987 -4.42189112163722 -7.227550144912315 -11.640128251962317 -3 -6 0
2750 688 2 0.55733 -9.789820894938687 -8.100233814820248 -14.143499060328331 1 10 0
2752 688 3 -1.11466 -10.036243027345847 -7.781500179655817 -13.411499043137718 1 10 0
963 241 2 0.55733 -11.880813960375333 -12.394168483843979 -1.7890347589486202 6 -5 0
2751 688 2 0.55733 -9.588432979604171 -7.48015628060055 -12.773640925413996 1 10 0
3678 541 9 -1.71637987 -4.728473968221753 -9.840213151097661 -15.349975000398887 -3 0 0
3801 688 9 -1.71637987 -10.332065822534497 -7.774092719547705 -13.38940283911492 1 10 0
856 214 3 -1.11466 -12.102011478668798 -8.803543652695572 14.306163448030903 0 -3 0
3722 593 9 -1.71637987 -10.395751881235707 -11.788475925182698 -17.817588445046354 -7 0 0
2161 541 1 1.71637987 -4.652957890367873 -9.844585627291629 -15.411691554355533 -3 0 0
1519 380 2 0.55733 -7.652985908334651 -6.6614087696747335 -12.053125881289926 -4 -3 0
74 19 2 0.55733 -7.542240566465034 -11.58874332674808 -17.97134023688045 0 -5 0
2164 541 3 -1.11466 -4.421342717436055 -9.851102270444525 -15.455322847926443 -3 0 0
3692 558 9 -1.71637987 -6.084281219988918 -7.0018313669546615 -15.760874512136374 6 -8 0
2231 558 2 0.55733 -5.170750486672555 -7.346027760867437 -15.682874279197131 6 -8 0
2232 558 3 -1.11466 -5.863434028670568 -6.946040650028056 -15.920001573910374 6 -8 0
2229 558 1 1.71637987 -6.049426737956482 -6.991830194010025 -15.79024872349799 6 -8 0
2815 704 2 0.55733 -6.164609147363759 -11.82430409813701 -8.906045468725885 -5 1 0
1520 380 3 -1.11466 -8.314694614364543 -6.837874728872364 -11.575985186450346 -4 -3 0
3505 380 9 -1.71637987 -8.466311548544365 -7.1257789735856605 -11.650874191231562 -4 -3 0
1517 380 1 1.71637987 -8.420063792586713 -7.041239000705887 -11.626369043252108 -4 -3 0
1023 256 2 0.55733 -8.417544710627734 -11.578478471189277 -5.462501082968888 7 0 0
1022 256 2 0.55733 -8.222756405358217 -11.407349188498978 -6.95546239436649 7 0 0
3845 704 9 -1.71637987 -6.9139779462849615 -11.384140590856147 -8.424127037784697 -5 1 0
2816 704 3 -1.11466 -6.779533135607577 -11.316736611032624 -8.659705092588478 -5 1 0
1024 256 3 -1.11466 -8.660531608630647 -11.543268481282194 -6.258857373755329 7 0 0
2891 723 2 0.55733 -8.24196564694638 -8.629653754078412 -10.850686417997961 5 -3 0
985 247 1 1.71637987 -5.398941850940813 -7.133131921341883 1.2415880272737412 -3 1 0
3823 784 12 -0.68760387 -12.248581638268046 -12.346176145472265 6.698259569651263 0 0 0
3165 63 9 -1.71637987 -7.451632261740025 -12.128071004313698 5.5497659397859005 -2 -5 0
3747 607 9 -1.71637987 -12.344907681494211 -10.55940011238655 7.7714356006271474 0 -1 0
2892 723 3 -1.11466 -8.193362633322907 -9.446202818071102 -10.68796690469328 5 -3 0
2890 723 2 0.55733 -7.957951300347425 -10.083674029389007 -11.169168027810047 5 -3 0
2889 723 1 1.71637987 -8.258524046798978 -9.507112506804866 -10.468097720700534 5 -3 0
3863 723 9 -1.71637987 -8.241012541790575 -9.494818831005592 -10.373908654074084 5 -3 0
1042 261 2 0.55733 -10.57457185701141 -10.728438152573064 -6.482021671118065 -1 2 0
2670 668 2 0.55733 -8.033266858925652 -7.486754950123885 -8.10168346340571 1 -6 0
2363 591 2 0.55733 -5.188937543331251 -9.858674373863122 -6.999152062113428 -2 -1 0
2361 591 1 1.71637987 -5.469936021164093 -8.984804708215323 -6.7329523557105 -2 -1 0
3741 591 9 -1.71637987 -5.418599324943096 -8.951873351826878 -6.710645180055148 -2 -1 0
2364 591 3 -1.11466 -5.556559340193298 -9.115177507649454 -6.907855988033495 -2 -1 0
2362 591 2 0.55733 -6.1819746378401526 -8.763203827196794 -7.333968338340235 -2 -1 0
3599 668 9 -1.71637987 -7.996854079113115 -8.463839565752675 -8.004055968483048 1 -6 0
2669 668 1 1.71637987 -8.013887848934104 -8.444537911513649 -8.080359983042008 1 -6 0
2672 668 3 -1.11466 -8.041605478722433 -8.304896409763444 -8.267824454173173 1 -6 0
2975 744 2 0.55733 -9.949094109105381 -7.885742950972257 -5.565622747625886 -2 2 0
1043 261 2 0.55733 -11.421215649848428 -9.481463352617345 -6.322274950768277 -1 2 0
679 170 2 0.55733 -8.480151507317583 -9.21699117731034 -3.946382862897882 2 0 0
2974 744 2 0.55733 -8.692198900304057 -8.119727790350757 -6.379914838429244 -2 2 0
2973 744 1 1.71637987 -8.997090558654556 -7.946718831031077 -5.489085973037431 -2 2 0
3884 744 9 -1.71637987 -8.961640201390573 -7.9226870603880535 -5.428403204832008 -2 2 0
2976 744 3 -1.11466 -9.127634663989483 -7.968850514734571 -5.684322466524658 -2 2 0
1044 261 3 -1.11466 -11.272862906799077 -10.275384293874497 -6.532613271333358 -1 2 0
1589 398 1 1.71637987 -5.124823448313608 -11.96555197317211 -4.3724092264287675 -5 -6 0
3521 398 9 -1.71637987 -5.068067469475708 -11.959247909272923 -4.357763287114474 -5 -6 0
1590 398 2 0.55733 -5.838798070521768 -11.333603609581257 -4.3377520315783675 -5 -6 0
1592 398 3 -1.11466 -5.354850266079579 -12.011081818193407 -4.376323024526078 -5 -6 0
1041 261 1 1.71637987 -11.45732447058693 -10.389681763955673 -6.619165059382973 -1 2 0
2671 668 2 0.55733 -8.130376450051969 -8.71029508801246 -8.992418482751937 1 -6 0
2166 542 2 0.55733 -10.619258800904639 -7.675723332829216 -9.707955852103439 -1 0 0
3366 261 9 -1.71637987 -11.525252886687957 -10.413043653794976 -6.631445519527678 -1 2 0
73 19 1 1.71637987 -7.876757485601566 -11.323575447626785 -18.82577014766677 0 -5 0
1040 260 3 -1.11466 -11.420000259285159 -6.627495755179888 -19.84154190290513 13 1 0
3175 68 9 -1.71637987 -7.161774106988906 -12.31975049247012 15.800299721217131 -11 3 0
2814 704 2 0.55733 -7.064295905627939 -10.606999164487346 -8.995361294496469 -5 1 0
3370 256 9 -1.71637987 -8.976532183418364 -11.600832850225304 -6.3086583245988255 7 0 0
1021 256 1 1.71637987 -8.890681347183497 -11.57667624916026 -6.293059545144481 7 0 0
1518 380 2 0.55733 -8.663435141013464 -6.407756842316581 -10.952023545520074 -4 -3 0
3277 170 9 -1.71637987 -8.442642438400904 -10.012183423337033 -3.376963402338865 2 0 0
680 170 3 -1.11466 -8.551087036563507 -9.75969096963072 -3.316518033371943 2 0 0
677 170 1 1.71637987 -8.467660215277812 -9.974479405362013 -3.361646138009594 2 0 0
2813 704 1 1.71637987 -6.890703956687272 -11.384506510833253 -8.464612610956117 -5 1 0
3791 616 9 -1.71637987 -12.1933219193204 -10.91537761887106 2.0158836809420606 1 -6 0
1768 442 3 -1.11466 -12.346508491557438 -7.739806593411503 4.205587343527797 2 -2 0
557 140 1 1.71637987 -11.103609217721091 -6.359375836533969 -2.158061346899891 5 -2 0
3583 437 9 -1.71637987 -11.771140749281937 -7.983537205438131 -5.310645184642673 8 0 0
3299 176 9 -1.71637987 -4.356233641977892 -11.510778924769655 -11.091704849369806 1 6 0
701 176 1 1.71637987 -4.321900290720868 -11.426565828006156 -11.109013323920871 1 6 0
2739 685 2 0.55733 -11.451291895026223 -6.462494389092302 -14.383862202503057 -6 4 0
853 214 1 1.71637987 -12.169985949751839 -8.694843224318777 14.10852173919531 0 -3 0
961 241 1 1.71637987 -11.892683565743553 -12.078047043042234 -2.6902592832252346 6 -5 0
3344 232 9 -1.71637987 -12.134694917546165 -8.282311862113442 -0.3556491924887663 -3 7 0
1379 345 2 0.55733 -6.7357487741353 -11.988897067727672 1.4257029025148207 3 -3 0
559 140 2 0.55733 -11.53893596553312 -6.974234326755648 -1.572841993978321 5 -2 0
1747 437 2 0.55733 -11.6402189071817 -7.358437176605934 -4.548787890135579 8 0 0
249 63 1 1.71637987 -7.519364704042998 -12.123162869687057 5.569866115735331 -2 -5 0
76 19 3 -1.11466 -8.000055511745124 -11.403916830194362 -18.644548577893744 0 -5 0
846 212 2 0.55733 -11.633105654190352 -12.008668745895767 0.7627282477363759 5 5 0
988 247 3 -1.11466 -5.42301673788546 -6.964722476645491 1.0797483231094165 -3 1 0
3325 214 9 -1.71637987 -12.184047687155237 -8.649159139992307 14.07696878753386 0 -3 0
3693 542 9 -1.71637987 -10.84423136827287 -6.892519438176397 -9.178573249441145 -1 0 0
445 112 1 1.71637987 -11.34238445748653 -6.657409140245105 11.884114165380383 -6 -8 0
448 112 3 -1.11466 -11.357148578259684 -6.7286249870793435 12.106472271116507 -6 -8 0
563 141 2 0.55733 -12.311596819046324 -8.412520097392271 -12.840739563926547 3 0 0
250 63 2 0.55733 -8.390371364063963 -11.880602846357796 5.2598902168849095 -2 -5 0
3487 360 9 -1.71637987 -12.26004425959267 -6.3994426563849425 9.347825479314597 -1 4 0
3221 112 9 -1.71637987 -11.356708919269105 -6.636780276609454 11.803563400198739 -6 -8 0
854 214 2 0.55733 -11.398162546158085 -9.245526470761687 14.235385624760184 0 -3 0
1551 388 2 0.55733 -6.129320775130724 -7.48687215902949 -1.7660442539461578 -2 5 0
964 241 3 -1.11466 -11.737225091877315 -12.226483704687483 -2.5917139169550207 6 -5 0
2042 511 2 0.55733 -5.909910533772258 -10.32769599784401 -1.1096687132330545 4 3 0
3699 511 9 -1.71637987 -5.142878050255328 -10.888331112608814 -1.4512171634191178 4 3 0
2041 511 1 1.71637987 -5.173002612796119 -10.86204602212188 -1.4036013663102045 4 3 0
2170 543 2 0.55733 -8.543868916826177 -7.816794175776436 2.5464269781300484 -3 3 0
1217 305 1 1.71637987 -9.71238846672205 -9.635419386166653 -0.6457238099271738 3 2 0
2044 511 3 -1.11466 -5.243207896272812 -10.824508035930618 -1.181907486687606 4 3 0
2493 624 1 1.71637987 -12.40152985110326 -10.298216948238395 10.607757871917087 0 -3 0
678 170 2 0.55733 -8.87280229455721 -9.665601640620185 -2.5516999116885897 2 0 0
269 68 1 1.71637987 -7.204507599398939 -12.311935318117255 15.883051230478088 -11 3 0
2461 616 1 1.71637987 -12.231872572599503 -10.867032908575 2.0489704988978095 1 -6 0
1810 453 2 0.55733 -4.448053726623462 -12.146137033311206 9.82108946545991 8 -2 0
987 247 2 0.55733 -4.743093388775468 -6.821782444747011 0.6183108549660665 -3 1 0
695 174 2 0.55733 -6.764013827485839 -8.466356725725005 0.36533849464264584 -3 8 0
693 174 1 1.71637987 -7.047922657392196 -8.949818548806277 -0.4090670860253338 -3 8 0
696 174 3 -1.11466 -7.183125699333349 -8.840849852938957 -0.2498497426889325 -3 8 0
3274 174 9 -1.71637987 -6.993765116783335 -8.977071407706836 -0.4583141029509114 -3 8 0
694 174 2 0.55733 -8.003194405504217 -8.893412060730542 -0.3950800852857678 -3 8 0
2852 713 3 -1.11466 -8.812278147163914 -11.137967878715953 1.6988027523290674 -1 7 0
2849 713 1 1.71637987 -8.708301069528435 -11.075732241200447 1.4974206549359166 -1 7 0
3839 713 9 -1.71637987 -8.693310070521953 -11.062851385896169 1.4437178815005305 -1 7 0
2850 713 2 0.55733 -8.512207483063587 -10.758989326330907 2.379075770454883 -1 7 0
2043 511 2 0.55733 -4.787081811696598 -11.208186982496976 -0.598863492664967 4 3 0
3688 543 9 -1.71637987 -7.82403118583627 -8.32392055566449 3.0204037904990555 -3 3 0
2169 543 1 1.71637987 -7.895314989603534 -8.322089983272 3.0361114755788834 -3 3 0
2172 543 3 -1.11466 -8.09241135819521 -8.224364066612159 3.1178663946942415 -3 3 0
1219 305 2 0.55733 -9.396009166330652 -10.122552578330009 0.11239436094499011 3 2 0
1220 305 3 -1.11466 -9.797976396717562 -9.630927546119343 -0.428136124773281 3 2 0
3449 305 9 -1.71637987 -9.659104635563095 -9.611572753325879 -0.6872850780366202 3 2 0
1218 305 2 0.55733 -10.456305665877752 -9.129188068940044 -0.3194616377836183 3 2 0
3086 780 6 1.68760387 -5.436591685477118 -7.700911126249351 3.576709552613589 -2 -3 0
3682 780 12 -0.68760387 -5.441754308516275 -7.695916981374815 3.570155311741385 -2 -3 0
560 140 3 -1.11466 -11.114795717700414 -6.349274292957767 -1.9221333387323591 5 -2 0
925 232 1 1.71637987 -12.22330904637385 -8.321779303412562 -0.3667443712761389 -3 7 0
3658 523 9 -1.71637987 -9.831663328025066 -6.913593704785905 1.498829166592253 -4 1 0
2089 523 1 1.71637987 -9.904695967019721 -6.907255703528624 1.4869492624937917 -4 1 0
2092 523 3 -1.11466 -10.12805611782681 -6.849788731660848 1.4439341273473485 -4 1 0
2090 523 2 0.55733 -10.576668751872619 -7.446279175020417 1.0718614577423309 -4 1 0
704 176 3 -1.11466 -4.225363775227715 -11.21731579071139 -11.147764813908687 1 6 0
246 62 2 0.55733 -11.360531104095879 -8.356602297008457 -20.238547593245293 5 -6 0
1596 399 3 -1.11466 -10.312452876715485 -12.161726359657347 -22.816542871329492 0 -1 0
253 64 1 1.71637987 -7.338737331225038 -6.567531318765221 -19.693462860472657 6 0 0
3267 140 9 -1.71637987 -11.094927749495334 -6.358219734964629 -2.22517179348621 5 -2 0
829 208 1 1.71637987 -12.399283925760601 -12.112247707111134 14.417788502308056 3 -6 0
1593 399 1 1.71637987 -10.416202058712287 -12.370881186738034 -22.788307642955683 0 -1 0
3767 646 9 -1.71637987 -6.026863419834598 -8.854339105527277 16.90502025679135 1 -9 0
272 68 3 -1.11466 -7.368392387933849 -12.310843173164129 16.051825179934927 -11 3 0
2947 737 2 0.55733 -11.495055482177856 -8.61353107982777 17.259838529563726 4 -5 0
2155 539 2 0.55733 -4.236337999496829 -7.6145102807229845 -6.472667930677182 2 -8 0
1037 260 1 1.71637987 -11.644295498105166 -6.702595758272903 -19.839985478124945 13 1 0
1166 292 2 0.55733 -5.611195889191199 -7.58511243219958 -19.84738111320179 2 9 0
143 36 2 0.55733 -9.021236720647941 -10.047887719963848 10.697924818225273 0 1 1
2949 738 1 1.71637987 -8.361620587206815 -12.379405418310753 13.409265862600368 -8 -4 0
2168 542 3 -1.11466 -10.587907270469941 -6.963071126166676 -9.275523258037921 -1 0 0
1549 388 1 1.71637987 -5.663592011607454 -6.747858667311813 -2.1541295319990597 -2 5 0
2171 543 2 0.55733 -8.230319162091316 -8.348365541499227 3.931300003613066 -3 3 0
248 62 3 -1.11466 -11.359043075532501 -9.1879814713517 -20.28871563639725 5 -6 0
3192 36 9 -1.71637987 -9.77486867593215 -9.797819592422934 11.303447674646371 0 1 1
1439 360 2 0.55733 -11.53214605291196 -6.885659087120931 8.832518081620417 -1 4 0
1552 388 3 -1.11466 -5.645411906456922 -6.828283677297498 -1.9335272541849255 -2 5 0
2819 705 2 0.55733 -5.1229833908459215 -9.284735936710142 13.88040377637486 -6 3 0
2479 620 2 0.55733 -10.055359105621678 -8.429517227969825 -21.713691560132677 6 1 0
3172 64 9 -1.71637987 -7.2756716848555 -6.5470430908950465 -19.672427961146 6 0 0
2838 710 2 0.55733 -4.796598124324621 -9.441077590543193 5.79312769358591 -6 11 0
2118 530 2 0.55733 -9.814930641060755 -8.259667903494371 7.137653167434849 -1 2 0
2406 602 2 0.55733 -6.173463215626189 -12.32769896256265 -2.0602778860879463 6 -5 0
2496 624 3 -1.11466 -12.32894353074297 -10.203800152673832 10.808868356619506 0 -3 0
1767 442 2 0.55733 -11.633741202010789 -7.43789486117915 4.517738997006603 2 -2 0
1209 303 1 1.71637987 -5.228768834115298 -12.329105556775207 8.033536648919616 9 -5 0
3090 784 6 1.68760387 -12.24896261410702 -12.337772493518324 6.701367169767783 0 0 0
2818 705 2 0.55733 -6.052870964743285 -8.936702587133032 15.026203279193064 -6 3 0
3363 247 9 -1.71637987 -5.403039022856156 -7.182686091256152 1.3019282167925184 -3 1 0
2839 710 2 0.55733 -5.964997509685184 -8.619814620825212 6.3018490731407075 -6 11 0
2840 710 3 -1.11466 -5.458036142443754 -8.937893365111874 5.719630788022512 -6 11 0
1882 471 2 0.55733 -7.269751770326144 -9.520972455064454 8.345239011371579 -2 3 0
3530 412 9 -1.71637987 -10.172138570166293 -11.699378592684534 7.903441926232634 -4 0 0
1881 471 1 1.71637987 -7.078009588846349 -8.790709419253025 7.759535264980842 -2 3 0
3593 471 9 -1.71637987 -7.079305068613551 -8.78326489225223 7.660479176213833 -2 3 0
438 110 2 0.55733 -8.04052985916218 -8.881583316292417 6.2084900093255335 0 6 0
439 110 2 0.55733 -9.010510495617723 -9.706227531703398 5.3853577506838235 0 6 0
437 110 1 1.71637987 -8.700025614222382 -8.812819497783057 5.52021511701118 0 6 0
3200 110 9 -1.71637987 -8.710039750977359 -8.7669617155352 5.480148840094318 0 6 0
1648 412 3 -1.11466 -10.354199287292516 -11.547646144194383 7.67585567629994 -4 0 0
440 110 3 -1.11466 -8.630197716198975 -9.004828727299282 5.631053974241408 0 6 0
1646 412 2 0.55733 -10.992633481913192 -11.12177760119275 8.003050085670216 -4 0 0
1647 412 2 0.55733 -10.101228557869668 -11.622449837186242 6.883243660368927 -4 0 0
1883 471 2 0.55733 -7.144709451034132 -8.011009214508954 8.308940133869577 -2 3 0
2119 530 2 0.55733 -10.995434580974699 -8.816843939618682 7.90752982638394 -1 2 0
2120 530 3 -1.11466 -10.503331994013836 -8.21393351305735 7.6061204193362615 -1 2 0
3334 792 14 -3.45723606 -10.36261857403424 -11.394387742129588 4.9739440823604 -2 2 0
2117 530 1 1.71637987 -10.570219776456476 -7.997533186222872 7.662551121819878 -1 2 0
3425 530 9 -1.71637987 -10.610005250409143 -7.935989946245144 7.676077782721544 -1 2 0
3098 792 8 2.45723606 -10.400131890642012 -11.353337572001786 4.851388709610122 -2 2 0
279 70 2 0.55733 -7.797130591398494 -11.601653933547851 9.918092893312227 1 0 0
277 70 1 1.71637987 -7.933209418771157 -10.866371674706345 9.322700059232238 1 0 0
3161 70 9 -1.71637987 -7.91607474567585 -10.797060597686912 9.327255477839437 1 0 0
1051 263 2 0.55733 -10.775370202279168 -6.46217464553091 6.34751267680734 0 0 0
252 63 3 -1.11466 -7.718682264944518 -12.242126574833438 5.598706423565312 -2 -5 0
280 70 3 -1.11466 -8.063516822228843 -11.062566683742773 9.342000225619481 1 0 0
278 70 2 0.55733 -8.715985506891698 -11.096388011919244 8.825117714169677 1 0 0
1884 471 3 -1.11466 -7.129544246763266 -8.780287798019588 7.98788532252733 -2 3 0
1645 412 1 1.71637987 -10.222792503927597 -11.665365203388971 7.831540808740127 -4 0 0
2837 710 1 1.71637987 -5.5090021154424385 -8.877077200134863 5.499956007564598 -6 11 0
3838 710 9 -1.71637987 -5.509009503058622 -8.82897271765592 5.403574142888947 -6 11 0
1544 386 3 -1.11466 -4.305380407928602 -7.394962056637872 -11.754718684003224 -3 -6 0
2494 624 2 0.55733 -11.501325686042508 -10.161484771116449 10.894800061014292 0 -3 0
141 36 1 1.71637987 -9.708248503616245 -9.787768467558372 11.30898416095347 0 1 1
1745 437 1 1.71637987 -11.826671252655384 -7.9414110787847685 -5.284655076597544 8 0 0
2582 646 2 0.55733 -6.242443714487996 -7.940132298627695 16.681347795474714 1 -9 0
3143 62 9 -1.71637987 -11.075125007535384 -9.311319170900452 -20.382358002646917 5 -6 0
119 30 2 0.55733 -8.045419119319112 -7.010321418930294 13.300216907611821 -3 10 0
830 208 2 0.55733 -11.714908494109608 -11.482133718003531 14.191589178297816 3 -6 0
3376 233 9 -1.71637987 -9.111151269250763 -7.4323286627977945 14.872863477873064 3 -2 0
118 30 2 0.55733 -6.590617013822664 -6.854250092131458 12.903920681122793 -3 10 0
2820 705 3 -1.11466 -5.846407695044543 -9.053759925882495 14.226124514194147 -6 3 0
3862 705 9 -1.71637987 -6.0353897736894195 -9.004388546099921 14.05422284587514 -6 3 0
2165 542 1 1.71637987 -10.790746842924726 -6.8981337434508205 -9.178973151874182 -1 0 0
1158 290 2 0.55733 -12.012237152200615 -6.548859860352936 14.435013274956463 8 -2 0
120 30 3 -1.11466 -7.416513955830538 -6.7954609993818815 12.796296532841462 -3 10 0
932 233 3 -1.11466 -8.957620812095175 -7.597240224855424 15.110265831890835 3 -2 0
2583 646 2 0.55733 -6.94837194437717 -9.20757544230304 17.120419574508855 1 -9 0
930 233 2 0.55733 -9.22967220657676 -8.371088374102964 15.262540278971954 3 -2 0
3436 303 9 -1.71637987 -5.170115809302283 -12.273502268144016 8.04386801778448 9 -5 0
2584 646 3 -1.11466 -6.2898439333107365 -8.738473874190085 16.919900140035118 1 -9 0
245 62 1 1.71637987 -11.152334132856327 -9.280875339752608 -20.356327054576315 5 -6 0
931 233 2 0.55733 -8.368165691472907 -7.144503897316283 15.48792639614012 3 -2 0
3728 30 9 -1.71637987 -7.519332835440248 -6.649902679276817 12.53138843552363 -3 10 0
641 161 1 1.71637987 -9.92982043796194 -10.38922023652035 14.379416413809249 -6 3 0
2581 646 1 1.71637987 -6.081783020814226 -8.849802328288924 16.933606528302228 1 -9 0
3306 161 9 -1.71637987 -10.025819701609839 -10.345746855641393 14.3524180221319 -6 3 0
3397 241 9 -1.71637987 -11.981453677014487 -12.041823015045091 -2.7419966460505742 6 -5 0
3102 796 8 2.45723606 -9.146557472054749 -10.187846231588003 17.195308835469664 -1 2 0
2817 705 1 1.71637987 -6.019970439699377 -9.012588736725302 14.074418828237585 -6 3 0
642 161 2 0.55733 -9.410737144125076 -10.987295694999782 13.845207537763509 -6 3 0
643 161 2 0.55733 -9.511671564492843 -10.4005637974388 15.239285045573231 -6 3 0
644 161 3 -1.11466 -9.741856044567939 -10.51076858072422 14.445576006787219 -6 3 0
117 30 1 1.71637987 -7.480643171215599 -6.704439747608237 12.590003005751345 -3 10 0
144 36 3 -1.11466 -9.478036654213739 -9.77127508706637 11.338709995258384 0 1 1