LAMMPS data file via write_data, version 29 Sep 2021, timestep = 6000000

3910 atoms
14 atom types
3109 bonds
9 bond types
2305 angles
3 angle types
768 impropers
1 improper types

-12.418372 12.418372 xlo xhi
-12.418372 12.418372 ylo yhi
-55.882675 55.882675 zlo zhi

Masses

1 15.2
2 1
3 0.001
4 15.2
5 15.2
6 22.2
7 126.2
8 34.2
9 0.8
10 0.8
11 0.8
12 0.8
13 0.8
14 0.8

PairIJ Coeffs # lj/cut/thole/long/omp

1 1 0.18985 3.18395 0.97825 2.6 12
1 2 0 1.59197 0 2.6 12
1 3 0 1.59197 0 2.6 12
1 4 0.16326 3.19381 0.96402 2.6 12
1 5 0.16326 3.19381 0.96402 2.6 12
1 6 0.13292 2.72788 0.48454 2.6 12
1 7 0.13706 4.15423 2.60182 2.6 12
1 8 0.13466 3.76133 1.89993 2.6 12
1 9 0.01055 3.18395 0.97825 2.6 12
1 10 0.00907 3.19381 0.96402 2.6 12
1 11 0.00907 3.19381 0.96402 2.6 12
1 12 0.00505 2.72788 0.48454 2.6 12
1 13 0.00091 4.15423 2.60182 2.6 12
1 14 0.00332 3.76133 1.89993 2.6 12
2 2 0 0 0 2.6 12
2 3 0 0 0 2.6 12
2 4 0 1.60183 0 2.6 12
2 5 0 1.60183 0 2.6 12
2 6 0 1.1359 0 2.6 12
2 7 0 2.56225 0 2.6 12
2 8 0 2.16935 0 2.6 12
2 9 0 1.59197 0 2.6 12
2 10 0 1.60183 0 2.6 12
2 11 0 1.60183 0 2.6 12
2 12 0 1.1359 0 2.6 12
2 13 0 2.56225 0 2.6 12
2 14 0 2.16935 0 2.6 12
3 3 0 0 0 2.6 12
3 4 0 1.60183 0 2.6 12
3 5 0 1.60183 0 2.6 12
3 6 0 1.1359 0 2.6 12
3 7 0 2.56225 0 2.6 12
3 8 0 2.16935 0 2.6 12
3 9 0 1.59197 0 2.6 12
3 10 0 1.60183 0 2.6 12
3 11 0 1.60183 0 2.6 12
3 12 0 1.1359 0 2.6 12
3 13 0 2.56225 0 2.6 12
3 14 0 2.16935 0 2.6 12
4 4 0.1404 3.20367 0.95 2.6 12
4 5 0.1404 3.20367 0.95 2.6 12
4 6 0.11431 2.73773 0.47749 2.6 12
4 7 0.11787 4.16409 2.56398 2.6 12
4 8 0.1158 3.77119 1.8723 2.6 12
4 9 0.00907 3.19381 0.96402 2.6 12
4 10 0.0078 3.20367 0.95 2.6 12
4 11 0.0078 3.20367 0.95 2.6 12
4 12 0.00434 2.73773 0.47749 2.6 12
4 13 0.00079 4.16409 2.56398 2.6 12
4 14 0.00285 3.77119 1.8723 2.6 12
5 5 0.1404 3.20367 0.95 2.6 12
5 6 0.11431 2.73773 0.47749 2.6 12
5 7 0.11787 4.16409 2.56398 2.6 12
5 8 0.1158 3.77119 1.8723 2.6 12
5 9 0.00907 3.19381 0.96402 2.6 12
5 10 0.0078 3.20367 0.95 2.6 12
5 11 0.0078 3.20367 0.95 2.6 12
5 12 0.00434 2.73773 0.47749 2.6 12
5 13 0.00079 4.16409 2.56398 2.6 12
5 14 0.00285 3.77119 1.8723 2.6 12
6 6 0.09304 2.2718 0.24 2.6 12
6 7 0.09589 3.69815 1.28872 2.6 12
6 8 0.09424 3.30525 0.94106 2.6 12
6 9 0.00726 2.72788 0.48454 2.6 12
6 10 0.00624 2.73773 0.47749 2.6 12
6 11 0.00624 2.73773 0.47749 2.6 12
6 12 0.00348 2.2718 0.24 2.6 12
6 13 0.00063 3.69815 1.28872 2.6 12
6 14 0.00229 3.30525 0.94106 2.6 12
7 7 0.09874 5.1245 6.92 2.6 12
7 8 0.09708 4.7316 5.0532 2.6 12
7 9 0.00726 4.15423 2.60182 2.6 12
7 10 0.00624 4.16409 2.56398 2.6 12
7 11 0.00624 4.16409 2.56398 2.6 12
7 12 0.00348 3.69815 1.28872 2.6 12
7 13 0.00063 5.1245 6.92 2.6 12
7 14 0.00229 4.7316 5.0532 2.6 12
8 8 0.09543 4.3387 3.69 2.6 12
8 9 0.00726 3.76133 1.89993 2.6 12
8 10 0.00624 3.77119 1.8723 2.6 12
8 11 0.00624 3.77119 1.8723 2.6 12
8 12 0.00348 3.30525 0.94106 2.6 12
8 13 0.00063 4.7316 5.0532 2.6 12
8 14 0.00229 4.3387 3.69 2.6 12
9 9 0 3.18395 0.97825 2.6 12
9 10 0 3.19381 0.96402 2.6 12
9 11 0 3.19381 0.96402 2.6 12
9 12 0 2.72788 0.48454 2.6 12
9 13 0 4.15423 2.60182 2.6 12
9 14 0 3.76133 1.89993 2.6 12
10 10 0 3.20367 0.95 2.6 12
10 11 0 3.20367 0.95 2.6 12
10 12 0 2.73773 0.47749 2.6 12
10 13 0 4.16409 2.56398 2.6 12
10 14 0 3.77119 1.8723 2.6 12
11 11 0 3.20367 0.95 2.6 12
11 12 0 2.73773 0.47749 2.6 12
11 13 0 4.16409 2.56398 2.6 12
11 14 0 3.77119 1.8723 2.6 12
12 12 0 2.2718 0.24 2.6 12
12 13 0 3.69815 1.28872 2.6 12
12 14 0 3.30525 0.94106 2.6 12
13 13 0 5.1245 6.92 2.6 12
13 14 0 4.7316 5.0532 2.6 12
14 14 0 4.3387 3.69 2.6 12

Bond Coeffs # harmonic/omp

1 10000 0.9572
2 10000 0.24034
3 10000 1.278
4 500 0
5 500 0
6 500 0
7 500 0
8 500 0
9 500 0

Angle Coeffs # harmonic/omp

1 10000 104.52
2 10000 52.26
3 10000 116.8

Improper Coeffs # harmonic/omp

1 10000 0

Atoms # full

852 213 3 -1.11466 -6.8623722766618265 -11.967298504898475 17.915688882986917 2 2 0
574 144 2 0.55733 -6.788153936981189 -11.081637203640108 -8.203444438988772 1 0 0
1512 378 3 -1.11466 -8.94113615486578 -12.137346490367939 8.709404644888703 0 0 0
1663 416 2 0.55733 -12.065197295144374 -12.075709018090194 14.177296214297902 3 1 0
29 8 1 1.71637987 -9.38835082696217 -10.542720982637528 -17.615820154079593 0 -1 0
3115 8 9 -1.71637987 -9.460900197679699 -10.539476597696089 -17.615937978146203 0 -1 0
30 8 2 0.55733 -8.832067268374354 -10.003839472531016 -17.054596332263657 0 -1 0
32 8 3 -1.11466 -9.171261844226674 -10.590686305480574 -17.540764037783926 0 -1 0
1022 256 2 0.55733 -11.36168392663053 -10.098713901168722 -17.462175137510776 3 3 0
1565 392 1 1.71637987 -8.985942933838931 -8.473049006646885 -3.7916788429333854 1 -2 0
1168 292 3 -1.11466 -7.921309048573508 -8.536586451171516 -15.78983565840746 -1 2 0
1166 292 2 0.55733 -8.054092930447982 -8.423813244425121 -14.973381253282703 -1 2 0
3372 256 9 -1.71637987 -12.215989531342448 -9.61608433593847 -17.459136280498388 3 3 0
1694 424 2 0.55733 -6.944527402006908 -11.791893268457148 -6.1823783006816795 0 -2 0
1021 256 1 1.71637987 -12.214810504706188 -9.67054425713253 -17.474763672290745 3 3 0
1024 256 3 -1.11466 -12.168451355376655 -9.893607675052353 -17.420230073404984 3 3 0
614 154 2 0.55733 -9.79873454820164 -12.188612259448098 -7.601997796357154 0 1 0
2862 716 2 0.55733 -6.317617685439192 -10.856554902354196 13.492620958443013 2 2 0
2859 715 2 0.55733 -11.73096734007774 -10.570398199776735 -8.086408468524185 0 0 0
2879 720 2 0.55733 -8.99026053490907 -8.703492998386109 -12.414922074917177 1 -1 0
1246 312 2 0.55733 -6.395072735276282 -12.080516389946379 -3.8384204167930918 1 3 0
3524 392 9 -1.71637987 -9.036292765642242 -8.402956235495822 -3.8184891941676784 1 -2 0
3362 240 9 -1.71637987 -10.733578861517898 -11.024952147656023 17.48299043706867 0 0 0
3332 213 9 -1.71637987 -6.58937939715469 -11.796294073138151 17.927685158585415 2 2 0
562 141 2 0.55733 -10.792675845694804 -10.181014797069151 -12.321557731811458 3 0 0
3256 141 9 -1.71637987 -9.879478800540063 -10.312307018575217 -12.668808113172354 3 0 0
564 141 3 -1.11466 -9.998217684917558 -10.412251140215817 -12.433978983246444 3 0 0
563 141 2 0.55733 -9.464333924237428 -10.788884460229022 -11.913908051498511 3 0 0
561 141 1 1.71637987 -9.910078350199784 -10.360753113075882 -12.645333920903536 3 0 0
2563 641 2 0.55733 -11.72717811651315 -8.384854170886035 16.6417898326229 0 -1 0
534 134 2 0.55733 -8.324157500458657 -12.124864471649442 -10.77861739128628 -1 -1 0
31 8 2 0.55733 -8.864440872214145 -11.320523185916828 -17.80532885710274 0 -1 0
726 182 2 0.55733 -10.970091961779437 -12.24034904063366 0.1802708439326084 -1 -2 0
3231 144 9 -1.71637987 -7.526644670798129 -10.703455600492978 -7.580198556941109 1 0 0
536 134 3 -1.11466 -9.051284343233464 -11.934837505511261 -10.415037221082967 -1 -1 0
573 144 1 1.71637987 -7.526224602581542 -10.73975198618612 -7.698549131234259 1 0 0
576 144 3 -1.11466 -7.522465331384215 -10.929522990331199 -7.834921534800451 1 0 0
533 134 1 1.71637987 -9.052136534034863 -11.731556015705362 -10.300681416856426 -1 -1 0
3244 134 9 -1.71637987 -9.046447907297088 -11.691122258886926 -10.323707389401442 -1 -1 0
338 85 2 0.55733 -7.447365304107922 -9.651602789237174 -6.207427565647346 -1 0 0
337 85 1 1.71637987 -7.227393894831172 -8.829381115000388 -5.769813591651241 -1 0 0
340 85 3 -1.11466 -7.108957474423199 -9.031367403155839 -5.762052083187689 -1 0 0
3212 85 9 -1.71637987 -7.2664359502193125 -8.781161039471668 -5.737281661856473 -1 0 0
575 144 2 0.55733 -8.242601222593294 -11.349191620626593 -7.869414499923371 1 0 0
3308 161 9 -1.71637987 -11.04116547831473 -9.429686055252823 -5.558464660094146 2 1 0
641 161 1 1.71637987 -11.04286285420595 -9.39938855132134 -5.485408276988802 2 1 0
644 161 3 -1.11466 -11.02984682962499 -9.231760698348362 -5.323565999080487 2 1 0
642 161 2 0.55733 -10.267964506695016 -9.121389432661042 -5.001836645601903 2 1 0
535 134 2 0.55733 -9.77218472533413 -12.35474468747891 -10.391538920602589 -1 -1 0
643 161 2 0.55733 -11.748928183246237 -8.841863326852097 -5.162302026078254 2 1 0
1576 394 3 -1.11466 -9.984141640141685 -9.820711926921312 19.837776341181808 -4 1 0
339 85 2 0.55733 -6.416194835565284 -9.013533525377516 -5.29664818822377 -1 0 0
63 16 2 0.55733 -11.706348395594858 -9.653467780916182 14.504915220674075 2 -1 0
631 158 2 0.55733 -11.592533579750317 -12.384842583459104 9.840737347394017 -1 3 0
1215 304 2 0.55733 -8.98652292587576 -10.949830334787272 16.32643785793174 2 1 0
1573 394 1 1.71637987 -10.072162186933513 -9.60736186492079 19.88855571367763 -4 1 0
2863 716 2 0.55733 -7.698527506947583 -10.683345939431362 12.891948084261626 2 2 0
3503 394 9 -1.71637987 -10.06183158120382 -9.543563385439375 19.900255427434463 -4 1 0
1976 494 3 -1.11466 -8.807789088243062 -10.913793511810429 -2.468600814943568 0 0 0
1974 494 2 0.55733 -9.520513000007064 -11.298710132080597 -2.667671783831592 0 0 0
1317 330 1 1.71637987 -9.896763276072681 -9.361963354056059 2.8065207719865946 0 -2 0
2094 524 2 0.55733 -11.872239497989343 -9.960271941576627 1.9851153806349715 0 1 0
3502 330 9 -1.71637987 -9.955604922650942 -9.336549573249918 2.84455839422288 0 -2 0
1319 330 2 0.55733 -9.009852364786076 -9.493993165498885 3.1353462940918684 0 -2 0
1320 330 3 -1.11466 -9.699465396501745 -9.378552160159748 2.68074405906373 0 -2 0
1188 297 3 -1.11466 -8.62761655228529 -9.23291521780581 -0.1017245737797011 0 1 0
3457 297 9 -1.71637987 -8.794376895894903 -9.164092612810844 0.125209314674996 0 1 0
1318 330 2 0.55733 -9.800481911814108 -9.308562004102727 1.8556100785904288 0 -2 0
1187 297 2 0.55733 -7.856984849791168 -8.914062853722179 -0.06970257716019676 0 1 0
1186 297 2 0.55733 -9.013518135254278 -9.659672182643533 -0.7050119454328388 0 1 0
1185 297 1 1.71637987 -8.756402307459618 -9.19554853410473 0.09004143198334588 0 1 0
1567 392 2 0.55733 -8.922592689568866 -9.250441374520094 -3.240706361726061 1 -2 0
1583 396 2 0.55733 -6.391336905612162 -10.014669101607433 3.6139959654628426 1 1 0
1973 494 1 1.71637987 -8.832071756747595 -10.736206621508932 -2.31382882904531 0 0 0
3632 494 9 -1.71637987 -8.841355520827172 -10.642667877488925 -2.295588946323998 0 0 0
1975 494 2 0.55733 -8.026089983771039 -11.051206111416002 -2.7254308349340106 0 0 0
849 213 1 1.71637987 -6.6659273424762215 -11.837513071859469 17.922480399908697 2 2 0
957 240 1 1.71637987 -10.795755144842486 -11.051630748011013 17.44513609336586 0 0 0
1575 394 2 0.55733 -10.249752418551473 -10.147403355676452 19.118590580144414 -4 1 0
2742 686 2 0.55733 -8.067739143607858 -11.525035533883708 4.578032069393912 0 -1 0
3813 715 9 -1.71637987 -11.314247510692448 -11.291591584689677 -7.493997959178323 0 0 0
62 16 2 0.55733 -11.017071030543072 -10.394557693694802 13.377758818256765 2 -1 0
2876 719 3 -1.11466 -6.624935704869374 -10.851113077923024 10.105891409303013 1 1 0
1510 378 2 0.55733 -9.219756652022088 -11.351372095111813 8.738357207673168 0 0 0
1216 304 3 -1.11466 -8.485537672121621 -11.34541522124139 15.786662173000334 2 1 0
2544 636 3 -1.11466 -11.871944521254541 -10.65457656685238 8.499523239798759 -3 0 0
2875 719 2 0.55733 -7.372226086618315 -10.480922929007676 10.09362137340188 1 1 0
2247 562 2 0.55733 -11.393969925172035 -11.460506925759418 4.893034986728026 0 4 0
1581 396 1 1.71637987 -7.154732989808601 -9.799602255556115 4.149424556796916 1 1 0
3509 396 9 -1.71637987 -7.2260472826300495 -9.827061346906385 4.147201208763191 1 1 0
1584 396 3 -1.11466 -6.927604790643003 -9.791912665309047 4.212493874159859 1 1 0
2245 562 1 1.71637987 -11.883352201016008 -11.079272159720695 5.620910566001332 0 4 0
2248 562 3 -1.11466 -11.723313990316457 -11.249908138725056 5.630105181773993 0 4 0
391 98 2 0.55733 -8.665157389713292 -8.581681111972289 8.79359153690462 0 1 0
390 98 2 0.55733 -9.602721908635033 -9.148954281344272 9.84085417615564 0 1 0
389 98 1 1.71637987 -8.971437442193464 -9.404734753092796 9.168468336631337 0 1 0
3208 98 9 -1.71637987 -8.97298140029017 -9.483704654134957 9.173753737647068 0 1 0
392 98 3 -1.11466 -9.036847118383157 -9.188014056131086 9.2280984281469 0 1 0
2541 636 1 1.71637987 -11.82890505075526 -10.878769157325927 8.455650980868407 -3 0 0
3824 636 9 -1.71637987 -11.807363766681387 -10.944919871647365 8.458398761075024 -3 0 0
2542 636 2 0.55733 -11.202331949318276 -10.213106927487031 8.728414884219392 -3 0 0
2246 562 2 0.55733 -11.576868916279615 -11.547285457385758 6.39511910686032 0 4 0
1582 396 2 0.55733 -6.794094907450337 -9.542109129134884 4.99599628750004 1 1 0
3705 562 9 -1.71637987 -11.95273733100055 -11.074206472215447 5.621831100071942 0 4 0
2873 719 1 1.71637987 -6.478401144196468 -10.774434572436245 10.274028090432685 1 1 0
2860 715 3 -1.11466 -11.387550042713107 -10.974559148246183 -7.443094932502342 0 0 0
2857 715 1 1.71637987 -11.337423265387436 -11.199418716761157 -7.484752245096215 0 0 0
2858 715 2 0.55733 -11.189526411940738 -10.708581759241643 -6.677410868414978 0 0 0
1574 394 2 0.55733 -9.453848408755912 -10.122100135246239 20.408063427086642 -4 1 0
64 16 3 -1.11466 -11.41905059060894 -10.324612805199155 14.104019389009668 2 -1 0
61 16 1 1.71637987 -11.457529468767826 -10.52881439521629 14.214853980089783 2 -1 0
2864 716 3 -1.11466 -7.089884108208374 -10.545579930151497 13.446224942927913 2 2 0
1213 304 1 1.71637987 -8.458692334356309 -11.5723825954009 15.826957678462765 2 1 0
3858 716 9 -1.71637987 -7.18168417591011 -10.362098825285873 13.647183330631917 2 2 0
2744 686 3 -1.11466 -8.427002433219608 -12.258725344541133 4.410686499159264 0 -1 0
2731 683 2 0.55733 -7.926607888303773 -8.657119894550338 13.250871716465106 0 1 0
3107 801 8 2.45723606 -10.887342334815488 -8.542493394886671 11.618632493590237 0 0 0
958 240 2 0.55733 -11.086471071392827 -11.922603157480692 17.18188380081468 0 0 0
3152 16 9 -1.71637987 -11.488770941961798 -10.607090198812212 14.231978854706838 2 -1 0
1630 408 2 0.55733 -9.695140352155097 -11.829307543294366 11.410456100388144 2 1 0
3852 801 14 -3.45723606 -10.782320833814632 -8.536934561830611 11.645711030462994 0 0 0
959 240 2 0.55733 -11.421682085235979 -10.45141556638683 17.044061082118777 0 0 0
850 213 2 0.55733 -7.430685666802052 -11.711459010482308 17.36074657500117 2 2 0
2861 716 1 1.71637987 -7.147508184259347 -10.394816743094832 13.617554709540745 2 2 0
1631 408 2 0.55733 -9.399306764867992 -10.375753187797788 11.721301887118472 2 1 0
1214 304 2 0.55733 -8.06733931993655 -11.056938140993665 15.125330955018566 2 1 0
1632 408 3 -1.11466 -9.355851554863372 -11.20057139279976 11.839988372509575 2 1 0
960 240 3 -1.11466 -10.980531544773564 -11.105777093225715 17.311957326972134 0 0 0
1629 408 1 1.71637987 -9.22524005550655 -11.267532843670667 12.024556912487448 2 1 0
3761 408 9 -1.71637987 -9.171686111129185 -11.284887162232437 12.095777399153834 2 1 0
3459 304 9 -1.71637987 -8.434631580982266 -11.634133410798677 15.88422703810191 2 1 0
2874 719 2 0.55733 -6.30909135044177 -11.453344228220699 9.623480067795366 1 1 0
3455 312 9 -1.71637987 -6.422099262480839 -11.451339768131836 -3.0508463096510856 1 3 0
3396 292 9 -1.71637987 -8.09793699658055 -8.736988561224857 -15.90821757069838 -1 2 0
1245 312 1 1.71637987 -6.347192715284333 -11.506163731340754 -3.0753176867937575 1 3 0
3514 378 9 -1.71637987 -8.745237231470218 -12.190153935108496 8.514474841281766 0 0 0
1566 392 2 0.55733 -8.385470157634504 -8.635124462112197 -4.5173864069935945 1 -2 0
1568 392 3 -1.11466 -8.852561238859478 -8.66141989546777 -3.827349140030414 1 -2 0
1509 378 1 1.71637987 -8.787863344658222 -12.180052062722948 8.537228023694347 0 0 0
2564 641 3 -1.11466 -12.408795335459992 -8.666550961265697 17.030647336285522 0 -1 0
3853 719 9 -1.71637987 -6.406799842000571 -10.759401190599204 10.310456404637353 1 1 0
1165 292 1 1.71637987 -8.03935044197292 -8.715517292415685 -15.885732032828523 -1 2 0
728 182 3 -1.11466 -10.343321368181892 -12.411491761730309 0.7044588580523727 -1 -2 0
1415 354 2 0.55733 -6.914241401836662 -12.276339096285728 7.8589347416681825 -1 4 0
3036 759 3 -1.11466 -10.539456150355027 -4.17133571694264 -21.349464041986547 1 2 0
3058 765 2 0.55733 -6.239672859170891 -6.364331279542726 -16.67321839984163 1 3 0
3035 759 2 0.55733 -10.636555140018983 -4.522015068935455 -22.101110739776534 1 2 0
1559 390 2 0.55733 -9.637603832175994 -5.04516605944696 -18.18839923092495 2 1 0
3153 42 9 -1.71637987 -11.19966851552155 -4.661458031965227 -1.7269413843880566 -1 0 0
2148 537 3 -1.11466 -6.348260883637933 -7.305450575779198 -7.981747776201991 2 0 0
1036 259 3 -1.11466 -10.71780569054299 -7.69521144871439 -16.10414081934995 -1 0 0
33 9 1 1.71637987 -10.813550453900378 -6.211378515512177 -13.380147339957947 -1 1 0
3531 390 9 -1.71637987 -9.15176370475851 -5.408632654178992 -17.408288845166076 2 1 0
1557 390 1 1.71637987 -9.21650807394433 -5.4316795912837605 -17.420955960047845 2 1 0
1560 390 3 -1.11466 -9.422583713391955 -5.488843607027406 -17.514239849706538 2 1 0
3169 9 9 -1.71637987 -10.74615586222012 -6.219108173844586 -13.340541387611832 -1 1 0
1465 367 1 1.71637987 -7.942447087864034 -4.9124628901366565 -13.092493747315192 1 2 0
1468 367 3 -1.11466 -8.037461124912113 -5.1175538217792775 -13.030529785655567 1 2 0
36 9 3 -1.11466 -10.99950404738364 -6.271259860326876 -13.505079550399824 -1 1 0
1467 367 2 0.55733 -8.856799453353114 -5.089385660246894 -12.878004437907327 1 2 0
35 9 2 0.55733 -11.732140693620586 -6.162028106348435 -13.119292205150192 -1 1 0
1558 390 2 0.55733 -9.825915828002767 -6.103347769293291 -17.118375833498543 2 1 0
3501 367 9 -1.71637987 -7.945271828830911 -4.8437231038210165 -13.125872114827756 1 2 0
1466 367 2 0.55733 -7.5018287158707855 -5.758118319866528 -13.002110100558083 1 2 0
34 9 2 0.55733 -10.827558759555956 -6.558415491198938 -14.269911972908611 -1 1 0
674 169 2 0.55733 -6.867458124923241 -7.6799706255222775 -11.163517934818962 2 -1 0
1033 259 1 1.71637987 -10.784597727864021 -7.471573571207243 -16.073632943862712 -1 0 0
2878 720 2 0.55733 -9.319980823882773 -7.2449316998314295 -12.666759963359535 1 -1 0
3373 259 9 -1.71637987 -10.78352359655067 -7.40428119395654 -16.056711764868776 -1 0 0
482 121 2 0.55733 -9.614682594337532 -7.7224928417152015 15.54393934058597 2 0 0
1950 488 2 0.55733 -11.414945790426483 -8.147724340303839 19.799041049686974 0 2 0
428 107 3 -1.11466 -7.756404223540175 -7.969477464898111 16.332404295238316 3 1 0
3841 720 9 -1.71637987 -8.56306868568205 -7.788259301892209 -12.357640702006087 1 -1 0
3057 765 1 1.71637987 -6.660677808220919 -6.751289520609582 -17.440214646739342 1 3 0
250 63 2 0.55733 -7.5096043235891905 -4.3299348874289985 -5.518178718943053 0 0 0
3291 169 9 -1.71637987 -6.228106059658774 -7.816499586330118 -10.410131450877744 2 -1 0
569 143 1 1.71637987 -11.061342192555738 -6.874554694451005 -7.101708430723767 -2 0 0
2774 694 2 0.55733 -9.659154423469767 -6.924004328907436 -4.416747280935294 2 3 0
572 143 3 -1.11466 -11.035250343442527 -7.077147589217874 -7.216270467925693 -2 0 0
570 143 2 0.55733 -10.849683913233862 -6.9987113387498345 -8.026607773872025 -2 0 0
1614 404 2 0.55733 -10.915251672510392 -6.687927518152355 -10.249154293814629 4 1 0
2775 694 2 0.55733 -10.509574763441126 -6.231879664400471 -5.464672491480368 2 3 0
3871 694 9 -1.71637987 -10.09535693388976 -6.047161978575293 -4.582956026248788 2 3 0
2776 694 3 -1.11466 -10.104464346026532 -6.29389608822698 -4.737505922852219 2 3 0
2773 694 1 1.71637987 -10.117389486679745 -6.104919688585206 -4.600433393097903 2 3 0
3557 404 9 -1.71637987 -10.047466797971001 -6.811608066678673 -9.847338589644492 4 1 0
1616 404 3 -1.11466 -10.105163915720839 -6.838639779286417 -10.119303490865352 4 1 0
1613 404 1 1.71637987 -10.0385473064081 -6.828182346456481 -9.894410712092602 4 1 0
3737 765 9 -1.71637987 -6.652277362114806 -6.8130607808404 -17.44939173081603 1 3 0
3259 143 9 -1.71637987 -11.073001309859766 -6.799394254234925 -7.026950563612056 -2 0 0
673 169 1 1.71637987 -6.211041321248352 -7.83292656550337 -10.485005246719725 2 -1 0
1502 376 2 0.55733 -6.4582580126406395 -6.392230391057663 -2.5344041268432136 -1 2 0
1615 404 2 0.55733 -9.49339002164774 -7.022298323494438 -10.657099932312324 4 1 0
277 70 1 1.71637987 -11.167875025168255 -4.5149095068505805 6.917674303765918 -2 1 0
842 211 2 0.55733 -11.909591474260214 -5.370678018162297 10.593219676899784 2 1 0
1034 259 2 0.55733 -9.898108670599731 -7.826008453066689 -16.023756228789757 -1 0 0
166 42 2 0.55733 -11.346951736352558 -5.023935133608359 -0.7967925548523944 -1 0 0
426 107 2 0.55733 -7.180401854262776 -7.499980394909254 15.953635272862366 3 1 0
3060 765 3 -1.11466 -6.724138887044084 -6.55626014039463 -17.324494849489653 1 3 0
483 121 2 0.55733 -10.663598123491518 -7.54522412563861 14.463172312850132 2 0 0
481 121 1 1.71637987 -10.525704609953056 -7.4657404616855665 15.404785938481735 2 0 0
1503 376 2 0.55733 -7.850949235506657 -6.990786500908286 -2.504755392918456 -1 2 0
1504 376 3 -1.11466 -7.228371594002321 -6.506756275779338 -2.2341688713319954 -1 2 0
1501 376 1 1.71637987 -7.277945726155185 -6.381188647826101 -2.0407888839814885 -1 2 0
3516 376 9 -1.71637987 -7.315913387951608 -6.319071496294851 -2.0076808428100694 -1 2 0
1752 438 3 -1.11466 -7.656964346920468 -5.288656498790199 0.8208657714504306 2 1 0
1259 315 2 0.55733 -9.624215829972865 -7.300893765971012 0.14803025884603782 2 1 0
3661 315 9 -1.71637987 -10.028380950789597 -6.616015372543342 0.6956142249916237 2 1 0
1257 315 1 1.71637987 -10.06503217090174 -6.642174144999346 0.6846424599495606 2 1 0
1260 315 3 -1.11466 -10.163921583944509 -6.809397442838821 0.5526745117834774 2 1 0
1258 315 2 0.55733 -10.998113874378085 -6.812056524468433 0.5634709023143358 2 1 0
1643 411 2 0.55733 -8.028924344238167 -4.764990245539655 -1.7362316787763143 1 2 0
1750 438 2 0.55733 -8.254412528940723 -5.838035577491351 1.0110383107762713 2 1 0
1749 438 1 1.71637987 -7.4847188202756545 -5.268437571444501 0.981240715090821 2 1 0
3553 438 9 -1.71637987 -7.4473487927846955 -5.261484582444097 1.0166555702816007 2 1 0
2291 573 2 0.55733 -8.387989076772243 -4.69842083641274 2.7009007977466997 0 -4 0
1751 438 2 0.55733 -7.565900267821643 -4.7925813598914795 0.15624651933500633 2 1 0
2289 573 1 1.71637987 -8.845436565591237 -4.873525354227542 3.521332077602923 0 -4 0
3668 573 9 -1.71637987 -8.934796772274362 -4.872842516967739 3.5452651269880056 0 -4 0
2292 573 3 -1.11466 -8.651211347257819 -4.7515703535760485 3.4911419357347997 0 -4 0
2732 683 3 -1.11466 -8.44369543001389 -8.060012402333232 12.983537596876122 0 1 0
2086 522 2 0.55733 -11.993490002123043 -4.204227279304122 2.2479998653290103 -1 0 0
168 42 3 -1.11466 -11.130055265141431 -4.900551570810144 -1.5935200567818768 -1 0 0
2877 720 1 1.71637987 -8.608946993326985 -7.8266181316558825 -12.392825225923268 1 -1 0
3059 765 2 0.55733 -7.395388420111319 -6.170640089285852 -17.634514710063595 1 3 0
2290 573 2 0.55733 -8.32848946511796 -4.431814964728845 4.192502204846601 0 -4 0
2603 651 2 0.55733 -11.2435532401862 -7.3844983346952455 6.473260567293725 1 -2 0
2604 651 3 -1.11466 -11.083412068624746 -7.163849518269773 7.2615010944652525 1 -2 0
3805 651 9 -1.71637987 -11.34047016031107 -7.042111413931912 7.422008692741428 1 -2 0
2602 651 2 0.55733 -10.360700053716064 -7.095220781377371 7.670573292194486 1 -2 0
1746 437 2 0.55733 -10.48981693266317 -7.9840926396553975 3.893522658374052 1 2 0
1335 334 2 0.55733 -6.865451368545733 -5.987888370067384 10.435348349573342 0 2 0
1800 450 3 -1.11466 -6.573790982574633 -5.840818541444684 6.098202846213529 -1 0 0
1797 450 1 1.71637987 -6.7240821931518 -6.011693891096451 6.15809465897361 -1 0 0
1748 437 3 -1.11466 -10.694634059847894 -7.250750769726399 4.235344806265548 1 2 0
278 70 2 0.55733 -11.164455857448987 -5.4329198595999015 7.188309211614107 -2 1 0
1333 334 1 1.71637987 -7.742191224860345 -5.6287538753401 10.306976150678791 0 2 0
1745 437 1 1.71637987 -10.858301252175831 -7.262334623913655 4.4015581070748695 1 2 0
1798 450 2 0.55733 -6.928250905097931 -5.1411012012263875 5.816713003296568 -1 0 0
2198 550 2 0.55733 -8.249901988386002 -6.36359592875335 8.573057321112728 -1 1 0
2199 550 2 0.55733 -8.022085595420275 -6.618469808685347 7.09656029045645 -1 1 0
2200 550 3 -1.11466 -8.35835422545303 -6.759724299010816 7.846631924240194 -1 1 0
2197 550 1 1.71637987 -8.507828226400044 -6.939598350603305 7.854820718404741 -1 1 0
3684 550 9 -1.71637987 -8.583835935202337 -7.000891870935496 7.8830923028339495 -1 1 0
3575 437 9 -1.71637987 -10.94891988386143 -7.232985837232901 4.465749907082922 1 2 0
3464 334 9 -1.71637987 -7.799119097833041 -5.596297420091429 10.239333741523064 0 2 0
1336 334 3 -1.11466 -7.680497852904684 -5.817750467755376 10.436460615836522 0 2 0
1747 437 2 0.55733 -10.410099597393177 -6.481838649009631 4.080824213463898 1 2 0
3585 450 9 -1.71637987 -6.778976826297766 -6.048497152889284 6.197218866158743 -1 0 0
2601 651 1 1.71637987 -11.275073828978755 -7.111594970559586 7.388357361034591 1 -2 0
1709 428 1 1.71637987 -8.461683351136568 -7.458502426654727 18.882675713778568 2 2 0
2880 720 3 -1.11466 -8.827948509283601 -7.885729617449974 -12.453631355574306 1 -1 0
2814 704 2 0.55733 -7.126690451706651 -6.383780961544358 13.46355824617237 4 -1 0
1167 292 2 0.55733 -7.4399816378235215 -8.112562145388116 -16.324162792087154 -1 2 0
3550 428 9 -1.71637987 -8.38199183572885 -7.462332741363815 18.826321845413396 2 2 0
1711 428 2 0.55733 -9.039139579895132 -6.699899832342944 18.953907005698014 2 2 0
1326 332 2 0.55733 -8.622552914693205 -4.2603680191506585 9.301367630733735 1 1 0
3258 121 9 -1.71637987 -10.583400142140762 -7.438962783718058 15.439607875945661 2 0 0
3173 70 9 -1.71637987 -11.216341401188227 -4.488977715303465 6.865762198202889 -2 1 0
2729 683 1 1.71637987 -8.36470170696818 -7.841257701707883 13.015512952473859 0 1 0
1334 334 2 0.55733 -8.315432097664663 -6.197985546075868 10.819031364723028 0 2 0
667 167 2 0.55733 -10.596805304781121 -5.1291298643800385 18.121395343008633 -1 1 0
843 211 2 0.55733 -11.238991564221273 -6.390727015665193 11.490811223157955 2 1 0
844 211 3 -1.11466 -11.437700877344255 -5.622879600158929 11.233026142873106 2 1 0
2815 704 2 0.55733 -6.729561400710845 -4.938163745502763 13.679782810490547 4 -1 0
3356 211 9 -1.71637987 -11.344107719709623 -5.363189011971008 11.38885966525007 2 1 0
841 211 1 1.71637987 -11.346792733992135 -5.44900878883792 11.361207422328224 2 1 0
3833 718 9 -1.71637987 -11.055494986944268 -4.7907756268621835 15.906579563592443 0 -1 0
2870 718 2 0.55733 -10.780371065414986 -5.715884222632231 15.653364537246043 0 -1 0
2872 718 3 -1.11466 -11.148455951080297 -4.968063728726685 15.665048687730382 0 -1 0
2869 718 1 1.71637987 -11.098486305955054 -4.83786338727059 15.854371876205011 0 -1 0
3795 683 9 -1.71637987 -8.313132667508539 -7.787380629477891 13.025774851413955 0 1 0
1949 488 1 1.71637987 -11.97795686803806 -7.526405278562297 19.339592494252404 0 2 0
2816 704 3 -1.11466 -6.62430335526969 -5.764278017071032 13.705221531810812 4 -1 0
2813 704 1 1.71637987 -6.416271857346161 -5.834159496743901 13.795716178110743 4 -1 0
3845 704 9 -1.71637987 -6.348490119734666 -5.83084792509917 13.846179189171334 4 -1 0
2355 589 2 0.55733 -12.223013156437254 -5.541411386611883 -6.601491623159156 0 0 0
666 167 2 0.55733 -10.037165248885708 -4.587515707806102 19.423037894565194 -1 1 0
1951 488 2 0.55733 -11.520727880839578 -6.689196913603464 19.398523034848772 0 2 0
1712 428 3 -1.11466 -8.675485588646161 -7.450435429062991 18.977279039883072 2 2 0
3294 167 9 -1.71637987 -10.422341682433217 -5.459078829695707 19.048432291129206 -1 1 0
665 167 1 1.71637987 -10.416009025045156 -5.3723570541537065 19.028506939014537 -1 1 0
1710 428 2 0.55733 -8.948662152020255 -8.177020799012965 19.284447678053606 2 2 0
668 167 3 -1.11466 -10.376294267513712 -5.16731807171233 18.92647899396983 -1 1 0
3618 488 9 -1.71637987 -12.059959516459994 -7.546794491984131 19.31397885964559 0 2 0
2871 718 2 0.55733 -11.660754054867379 -4.605878320416979 15.117152811255888 0 -1 0
484 121 3 -1.11466 -10.371394429160258 -7.532503155143181 15.244783218683148 2 0 0
1952 488 3 -1.11466 -11.772876600496048 -7.483775170183845 19.44177911874535 0 2 0
571 143 2 0.55733 -11.14741066797945 -7.758666023052164 -6.748659556422624 -2 0 0
3698 522 9 -1.71637987 -11.964680820270916 -4.278853186778136 1.2470253589468618 -1 0 0
3232 107 9 -1.71637987 -7.9362934452570055 -8.111804796957436 16.161358740068025 3 1 0
425 107 1 1.71637987 -7.882193346017157 -8.107672434406036 16.188602232238853 3 1 0
2146 537 2 0.55733 -6.410401677581175 -7.3666946994159845 -8.811205108752038 2 0 0
427 107 2 0.55733 -7.960546198673136 -8.033716204821983 17.137694056422884 3 1 0
2085 522 1 1.71637987 -11.949848071857057 -4.254700922080172 1.29453093944436 -1 0 0
818 205 2 0.55733 -6.766901469332521 -7.083116593975718 18.44269298653445 1 -1 0
280 70 3 -1.11466 -11.079653278267193 -4.605837898823558 7.116915614724122 -2 1 0
2730 683 2 0.55733 -9.193648272475034 -8.111422808636384 12.62254035965289 0 1 0
252 63 3 -1.11466 -8.255624609904991 -4.212087728479351 -5.164435299987139 0 0 0
2147 537 2 0.55733 -6.769067175586312 -7.694566720424209 -7.375732846396258 2 0 0
251 63 2 0.55733 -8.910116453973814 -4.724473342969654 -5.094116086162845 0 0 0
167 42 2 0.55733 -10.746516894567204 -5.403732006917599 -2.135577370160717 -1 0 0
165 42 1 1.71637987 -11.186330854373947 -4.690588962148068 -1.6785589333038042 -1 0 0
2755 689 2 0.55733 -11.552350078910221 -4.189075630026296 4.806377337528471 0 3 0
1035 259 2 0.55733 -11.339643398391198 -8.226759305433434 -16.268242553496606 -1 0 0
3307 153 9 -1.71637987 -9.726977286814924 -1.311224712705243 -21.305385003293683 0 3 0
612 153 3 -1.11466 -9.968256996166271 -1.4617306923806286 -21.346180375093 0 3 0
609 153 1 1.71637987 -9.765580768059571 -1.3393257420777025 -21.327456480421386 0 3 0
610 153 2 0.55733 -9.878504753707583 -2.290515746163664 -21.353312777772707 0 3 0
611 153 2 0.55733 -10.652396480897423 -0.98839565658164 -21.38936484021655 0 3 0
2063 516 2 0.55733 -8.54811784492717 -2.305268710376007 19.261743238344614 1 -1 0