LAMMPS data file via write_data, version 29 Sep 2021, timestep = 8000000

3910 atoms
14 atom types
3109 bonds
9 bond types
2305 angles
3 angle types
768 impropers
1 improper types

-12.418372 12.418372 xlo xhi
-12.418372 12.418372 ylo yhi
-55.882675 55.882675 zlo zhi

Masses

1 15.2
2 1
3 0.001
4 15.2
5 15.2
6 22.2
7 126.2
8 34.2
9 0.8
10 0.8
11 0.8
12 0.8
13 0.8
14 0.8

PairIJ Coeffs # lj/cut/thole/long/omp

1 1 0.18985 3.18395 0.97825 2.6 12
1 2 0 1.59197 0 2.6 12
1 3 0 1.59197 0 2.6 12
1 4 0.16326 3.19381 0.96402 2.6 12
1 5 0.16326 3.19381 0.96402 2.6 12
1 6 0.13292 2.72788 0.48454 2.6 12
1 7 0.13706 4.15423 2.60182 2.6 12
1 8 0.13466 3.76133 1.89993 2.6 12
1 9 0.01055 3.18395 0.97825 2.6 12
1 10 0.00907 3.19381 0.96402 2.6 12
1 11 0.00907 3.19381 0.96402 2.6 12
1 12 0.00505 2.72788 0.48454 2.6 12
1 13 0.00091 4.15423 2.60182 2.6 12
1 14 0.00332 3.76133 1.89993 2.6 12
2 2 0 0 0 2.6 12
2 3 0 0 0 2.6 12
2 4 0 1.60183 0 2.6 12
2 5 0 1.60183 0 2.6 12
2 6 0 1.1359 0 2.6 12
2 7 0 2.56225 0 2.6 12
2 8 0 2.16935 0 2.6 12
2 9 0 1.59197 0 2.6 12
2 10 0 1.60183 0 2.6 12
2 11 0 1.60183 0 2.6 12
2 12 0 1.1359 0 2.6 12
2 13 0 2.56225 0 2.6 12
2 14 0 2.16935 0 2.6 12
3 3 0 0 0 2.6 12
3 4 0 1.60183 0 2.6 12
3 5 0 1.60183 0 2.6 12
3 6 0 1.1359 0 2.6 12
3 7 0 2.56225 0 2.6 12
3 8 0 2.16935 0 2.6 12
3 9 0 1.59197 0 2.6 12
3 10 0 1.60183 0 2.6 12
3 11 0 1.60183 0 2.6 12
3 12 0 1.1359 0 2.6 12
3 13 0 2.56225 0 2.6 12
3 14 0 2.16935 0 2.6 12
4 4 0.1404 3.20367 0.95 2.6 12
4 5 0.1404 3.20367 0.95 2.6 12
4 6 0.11431 2.73773 0.47749 2.6 12
4 7 0.11787 4.16409 2.56398 2.6 12
4 8 0.1158 3.77119 1.8723 2.6 12
4 9 0.00907 3.19381 0.96402 2.6 12
4 10 0.0078 3.20367 0.95 2.6 12
4 11 0.0078 3.20367 0.95 2.6 12
4 12 0.00434 2.73773 0.47749 2.6 12
4 13 0.00079 4.16409 2.56398 2.6 12
4 14 0.00285 3.77119 1.8723 2.6 12
5 5 0.1404 3.20367 0.95 2.6 12
5 6 0.11431 2.73773 0.47749 2.6 12
5 7 0.11787 4.16409 2.56398 2.6 12
5 8 0.1158 3.77119 1.8723 2.6 12
5 9 0.00907 3.19381 0.96402 2.6 12
5 10 0.0078 3.20367 0.95 2.6 12
5 11 0.0078 3.20367 0.95 2.6 12
5 12 0.00434 2.73773 0.47749 2.6 12
5 13 0.00079 4.16409 2.56398 2.6 12
5 14 0.00285 3.77119 1.8723 2.6 12
6 6 0.09304 2.2718 0.24 2.6 12
6 7 0.09589 3.69815 1.28872 2.6 12
6 8 0.09424 3.30525 0.94106 2.6 12
6 9 0.00726 2.72788 0.48454 2.6 12
6 10 0.00624 2.73773 0.47749 2.6 12
6 11 0.00624 2.73773 0.47749 2.6 12
6 12 0.00348 2.2718 0.24 2.6 12
6 13 0.00063 3.69815 1.28872 2.6 12
6 14 0.00229 3.30525 0.94106 2.6 12
7 7 0.09874 5.1245 6.92 2.6 12
7 8 0.09708 4.7316 5.0532 2.6 12
7 9 0.00726 4.15423 2.60182 2.6 12
7 10 0.00624 4.16409 2.56398 2.6 12
7 11 0.00624 4.16409 2.56398 2.6 12
7 12 0.00348 3.69815 1.28872 2.6 12
7 13 0.00063 5.1245 6.92 2.6 12
7 14 0.00229 4.7316 5.0532 2.6 12
8 8 0.09543 4.3387 3.69 2.6 12
8 9 0.00726 3.76133 1.89993 2.6 12
8 10 0.00624 3.77119 1.8723 2.6 12
8 11 0.00624 3.77119 1.8723 2.6 12
8 12 0.00348 3.30525 0.94106 2.6 12
8 13 0.00063 4.7316 5.0532 2.6 12
8 14 0.00229 4.3387 3.69 2.6 12
9 9 0 3.18395 0.97825 2.6 12
9 10 0 3.19381 0.96402 2.6 12
9 11 0 3.19381 0.96402 2.6 12
9 12 0 2.72788 0.48454 2.6 12
9 13 0 4.15423 2.60182 2.6 12
9 14 0 3.76133 1.89993 2.6 12
10 10 0 3.20367 0.95 2.6 12
10 11 0 3.20367 0.95 2.6 12
10 12 0 2.73773 0.47749 2.6 12
10 13 0 4.16409 2.56398 2.6 12
10 14 0 3.77119 1.8723 2.6 12
11 11 0 3.20367 0.95 2.6 12
11 12 0 2.73773 0.47749 2.6 12
11 13 0 4.16409 2.56398 2.6 12
11 14 0 3.77119 1.8723 2.6 12
12 12 0 2.2718 0.24 2.6 12
12 13 0 3.69815 1.28872 2.6 12
12 14 0 3.30525 0.94106 2.6 12
13 13 0 5.1245 6.92 2.6 12
13 14 0 4.7316 5.0532 2.6 12
14 14 0 4.3387 3.69 2.6 12

Bond Coeffs # harmonic/omp

1 10000 0.9572
2 10000 0.24034
3 10000 1.278
4 500 0
5 500 0
6 500 0
7 500 0
8 500 0
9 500 0

Angle Coeffs # harmonic/omp

1 10000 104.52
2 10000 52.26
3 10000 116.8

Improper Coeffs # harmonic/omp

1 10000 0

Atoms # full

502 126 2 0.55733 -8.138406886313646 -11.529759402613251 17.06187310545574 -2 4 0
1444 361 3 -1.11466 -9.473881483270448 -8.443245597425099 -15.705631951958887 3 3 0
1603 401 2 0.55733 -6.933056813825124 -11.10561209673285 -17.07823657255449 -4 7 0
3212 104 9 -1.71637987 -6.933792454271128 -9.325199106760973 -11.90649870294679 1 1 0
2343 586 2 0.55733 -7.54833736667103 -7.877887915005037 -13.491156274822524 7 -2 0
3477 361 9 -1.71637987 -9.273373882094411 -8.239099895788637 -15.752814745101213 3 3 0
1441 361 1 1.71637987 -9.330292713898192 -8.268582823625579 -15.772694932950309 3 3 0
1443 361 2 0.55733 -9.218100630148642 -9.207850344518524 -15.91803209256897 3 3 0
3318 141 9 -1.71637987 -10.795984584501923 -10.756693448163551 -13.017985063528721 -2 4 0
2593 649 1 1.71637987 -11.981975909179026 -8.42264843404316 17.835122838941537 3 -2 0
564 141 3 -1.11466 -10.947017687051884 -10.500130935944483 -13.071674614912313 -2 4 0
561 141 1 1.71637987 -10.826134844874995 -10.697783822845295 -13.038372240847782 -2 4 0
3440 318 9 -1.71637987 -12.381905476957941 -11.406522659384143 -5.122589669102035 2 -4 0
3253 126 9 -1.71637987 -7.255960048982649 -11.922882420575462 17.254737545679177 -2 4 0
3862 548 9 -1.71637987 -9.31747530010036 -8.004517308087973 11.429847715544808 -2 -1 0
3789 649 9 -1.71637987 -11.912231808519488 -8.45354447597341 17.833174107200488 3 -2 0
1802 451 2 0.55733 -12.212908161526938 -8.737714329980045 -0.0018755423437002428 -4 2 0
415 104 2 0.55733 -7.437165442271642 -9.467862823466474 -11.07478586768489 1 1 0
2450 613 2 0.55733 -9.824372342660649 -12.311997919068974 -12.810732686099811 2 -1 0
2682 671 2 0.55733 -9.442040241194286 -10.435196886642451 18.530451647518387 2 8 0
3153 30 9 -1.71637987 -6.447972557301152 -10.042710788264484 -15.760533635889148 -2 -3 0
1610 403 2 0.55733 -11.79456966167673 -11.184158419757402 -9.868303141199666 -2 5 0
416 104 3 -1.11466 -6.965641937422161 -9.555694195947762 -11.757123398039367 1 1 0
413 104 1 1.71637987 -6.925234295203501 -9.355265921081386 -11.876091358889624 1 1 0
562 141 2 0.55733 -10.536330190854699 -9.801879607415342 -12.869188189089684 -2 4 0
373 94 1 1.71637987 -12.356147997049908 -8.956453229279454 2.3452546943645545 3 -4 0
3485 364 9 -1.71637987 -11.503296467855582 -11.747338088225519 14.078815392530881 1 0 0
2681 671 1 1.71637987 -9.55344758450788 -9.552329720745659 18.181879196679514 2 8 0
1272 318 3 -1.11466 -12.279353719997433 -11.591379447229308 -4.923565748761348 2 -4 0
3231 85 9 -1.71637987 -9.635909167441909 -12.375441927581402 18.847512836515595 -2 2 0
563 141 2 0.55733 -11.718353968618192 -10.60835464327864 -13.371185443896767 -2 4 0
432 108 3 -1.11466 -12.394383155253948 -8.082111332547235 -7.607737916627372 2 -2 0
2923 731 2 0.55733 -6.819855724339785 -8.304565441934203 1.2718930700228568 -5 -3 0
1663 416 2 0.55733 -11.275587977092432 -7.592115576157944 -13.014661876266741 6 3 0
431 108 2 0.55733 -11.842105567689632 -8.630455439097522 -7.306766214440263 2 -2 0
1105 277 1 1.71637987 -10.091177287309526 -12.071213711350715 -9.624229421271478 0 3 0
2217 555 1 1.71637987 -7.877223440796192 -11.823833513313144 -4.486660588978225 -2 4 0
1604 401 3 -1.11466 -7.031775796224288 -11.651522915595155 -17.699925575981336 -4 7 0
2646 662 2 0.55733 -11.454726932450363 -10.523736029720848 -6.469743897651115 0 8 0
2782 696 2 0.55733 -9.01306642060132 -9.87612152651563 -9.98073471482795 5 2 0
2784 696 3 -1.11466 -8.43011502039037 -9.537116408360703 -9.488257277413345 5 2 0
2781 696 1 1.71637987 -8.443903820254269 -9.305435388218164 -9.466707969332402 5 2 0
3810 696 9 -1.71637987 -8.451024173357712 -9.253711148605397 -9.520008006864959 5 2 0
2783 696 2 0.55733 -7.807449905628129 -9.894027837037585 -9.061502375469825 5 2 0
2645 662 1 1.71637987 -10.893078482145231 -10.048230067042292 -7.082258655001067 0 8 0
478 120 2 0.55733 -9.179648470345162 -9.584766184582115 -6.32093671737482 2 2 0
3260 120 9 -1.71637987 -8.308901737788434 -9.129074892010346 -6.13574592069888 2 2 0
477 120 1 1.71637987 -8.32232698718577 -9.2002429423196 -6.145588657171836 2 2 0
480 120 3 -1.11466 -8.368565115901765 -9.411017025028222 -6.240881497039041 2 2 0
3842 662 9 -1.71637987 -10.87686003035886 -9.982077208531717 -7.080496710208733 0 8 0
1664 416 3 -1.11466 -10.486719501737426 -7.466305430060188 -13.253863026443053 6 3 0
479 120 2 0.55733 -7.6936780250212 -9.858114973006115 -6.441002675242194 2 2 0
2647 662 2 0.55733 -10.912093177762141 -10.564182222070507 -7.8849301002835155 0 8 0
2648 662 3 -1.11466 -11.010430746872101 -10.245985912861958 -7.119612641207563 0 8 0
3006 752 2 0.55733 -10.236499132783525 -7.930440567033784 0.7695809804365807 -6 3 0
2219 555 2 0.55733 -8.621544427432 -11.412485778756338 -4.052847721378765 -2 4 0
3405 277 9 -1.71637987 -10.144242167199268 -12.011796148280613 -9.629200530411296 0 3 0
3682 555 9 -1.71637987 -7.820625210574058 -11.810746734574254 -4.508718599601004 -2 4 0
1271 318 2 0.55733 -11.86629431791941 -11.19882424906257 -4.3130465451689135 2 -4 0
2254 564 2 0.55733 -6.730833519100714 -12.312171339457509 -13.896030062301472 -1 -9 0
414 104 2 0.55733 -6.611260913074488 -10.233269114131149 -12.089750312126107 1 1 0
2220 555 3 -1.11466 -8.055230995774737 -11.930364798853608 -4.378007520079803 -2 4 0
1804 451 3 -1.11466 -11.838714669228981 -8.66822503489822 -0.7472300339637585 -4 2 0
1108 277 3 -1.11466 -9.953081709989497 -12.242441485368243 -9.705541528447991 0 3 0
2191 548 2 0.55733 -8.815936235960727 -8.045638248817085 12.255776971321104 -2 -1 0
2924 731 3 -1.11466 -7.363030920693593 -8.926161874437053 1.3862414893939745 -5 -3 0
842 211 2 0.55733 -6.965924039929699 -11.25231241495867 0.9614985437437131 5 2 0
3579 416 9 -1.71637987 -10.371178603980308 -7.707808572204613 -13.370122518221265 6 3 0
2354 589 2 0.55733 -6.917788179902389 -8.106202296519088 -4.705977996009074 -4 -6 0
790 198 2 0.55733 -10.373849935157946 -12.224027283375564 6.250357786526914 0 -2 0
1456 364 3 -1.11466 -11.513539630649998 -11.678168363690832 14.387690182024436 1 0 0
2596 649 3 -1.11466 -12.210216756330084 -8.366354069043897 17.826249917012095 3 -2 0
2828 707 3 -1.11466 -11.200904659955977 -12.134374964230473 11.019893857960346 -3 4 0
3559 451 9 -1.71637987 -11.545659915640266 -8.62940298726643 -0.7420294678466373 -4 2 0
1269 318 1 1.71637987 -12.37991897527013 -11.449924883551155 -5.081674742814566 2 -4 0
2020 505 3 -1.11466 -10.026821442720363 -11.341484363813494 1.18761322745899 -1 1 0
2019 505 2 0.55733 -9.669398141619654 -11.38600940601528 0.4352239143677795 -1 1 0
3853 731 9 -1.71637987 -7.275735256269738 -9.196544561144252 1.3506640189198817 -5 -3 0
520 130 3 -1.11466 -8.411428451165477 -10.022272724870003 -0.8199370489726222 -2 -3 0
517 130 1 1.71637987 -8.612081908785871 -10.138657302504166 -0.7948684198597147 -2 -3 0
550 138 2 0.55733 -10.65842718354561 -10.042285222568621 -2.1992910260216263 -3 -3 0
552 138 3 -1.11466 -10.54122660333585 -9.95340594259123 -3.0198151977840433 -3 -3 0
549 138 1 1.71637987 -10.453417556192857 -10.144443767162894 -3.1288935201750263 -3 -3 0
3282 138 9 -1.71637987 -10.454368001100562 -10.189678144111049 -3.1748514339430427 -3 -3 0
551 138 2 0.55733 -10.676429146279125 -9.302671016200403 -3.5212319494531523 -3 -3 0
519 130 2 0.55733 -8.17514755055442 -9.58829765705114 -0.14669228312120097 -2 -3 0
3246 130 9 -1.71637987 -8.666777289980569 -10.17344733318411 -0.7679212178212574 -2 -3 0
518 130 2 0.55733 -8.043981743927455 -10.112417881526957 -1.5631023110191788 -2 -3 0
1602 401 2 0.55733 -7.2282723164756275 -11.533472824205203 -18.501163534134495 -4 7 0
503 126 2 0.55733 -6.749782419293802 -11.097579644811594 17.49111623258563 -2 4 0
2189 548 1 1.71637987 -9.327598911711545 -8.05080218192513 11.447792048172472 -2 -1 0
2018 505 2 0.55733 -9.970169433852847 -10.760492265142878 1.7820900877835881 -1 1 0
3650 505 9 -1.71637987 -10.170799772717823 -11.580536545623108 1.2745587192044652 -1 1 0
3812 671 9 -1.71637987 -9.479818586868436 -9.526001533740313 18.139499207789456 2 8 0
2017 505 1 1.71637987 -10.165228316341198 -11.521328450608365 1.2403318451417802 -1 1 0
1220 305 3 -1.11466 -9.972539295228618 -9.801622408784176 3.5263875012510923 -2 -1 0
1217 305 1 1.71637987 -9.808081679811362 -9.874868005955381 3.3767554315488706 -2 -1 0
1219 305 2 0.55733 -10.61998380375187 -9.41004087797138 3.1745274214771633 -2 -1 0
3429 305 9 -1.71637987 -9.77503410265736 -9.879714828949725 3.3131455376606604 -2 -1 0
1801 451 1 1.71637987 -11.606369260925494 -8.659535179592226 -0.738841101447849 -4 2 0
1142 286 2 0.55733 -6.92092408353391 -9.195308328464536 13.218311709958446 -4 3 0
2486 622 2 0.55733 -10.298409314077668 -8.210203455089955 14.123785066103101 5 -2 0
1659 415 2 0.55733 -7.67979190976873 -11.108275260101786 7.939216854178937 3 -3 0
1803 451 2 0.55733 -12.165902617885731 -8.62861138309103 -1.514105332315527 -4 2 0
1660 415 3 -1.11466 -8.275624509376478 -11.23780505961376 8.507440418166897 3 -3 0
495 124 2 0.55733 -10.905617212039518 -10.439105903158097 9.957449689159848 -1 0 0
1453 364 1 1.71637987 -11.495968144971286 -11.734372290374584 14.161684882650928 1 0 0
2921 731 1 1.71637987 -7.272485717685108 -9.141447156366429 1.3601441731654984 -5 -3 0
3334 211 9 -1.71637987 -6.316795838177239 -12.005332775529826 1.2021019886397142 5 2 0
72 18 3 -1.11466 -7.792002178080487 -7.509197072446123 7.207144994001054 8 -4 0
844 211 3 -1.11466 -6.405316436229805 -11.869402061803536 0.9292878136725029 5 2 0
2356 589 3 -1.11466 -6.226099007308632 -7.857277563878774 -4.313494202128497 -4 -6 0
2561 641 1 1.71637987 -6.572278936489849 -9.09413518028454 4.114403630418325 -4 3 0
3807 641 9 -1.71637987 -6.592863079694932 -9.069707886847883 4.159130587573828 -4 3 0
2564 641 3 -1.11466 -6.44597091548151 -9.16167664838095 3.9311207052015145 -4 3 0
3748 608 9 -1.71637987 -6.562744577061171 -10.074003268058533 6.944381756693036 1 1 0
2429 608 1 1.71637987 -6.507824044796173 -10.080913694896454 6.903686425070396 1 1 0
1658 415 2 0.55733 -8.423197773739727 -10.860228782150585 9.235940908874802 3 -3 0
2432 608 3 -1.11466 -6.37510581286798 -10.140964289654535 6.720231202900006 1 1 0
335 84 2 0.55733 -7.126045044531887 -10.633781366411592 11.035074999815375 -1 -9 0
3761 124 9 -1.71637987 -10.836458712616324 -9.684256797187238 9.309439887984439 -1 0 0
494 124 2 0.55733 -10.890619971329103 -8.923881232942724 9.899193417415338 -1 0 0
496 124 3 -1.11466 -10.852684549153581 -9.695041358792263 9.582395813870823 -1 0 0
1234 309 2 0.55733 -10.047121682567752 -9.92168549370395 6.949845394577456 5 -3 0
1235 309 2 0.55733 -11.336172985588473 -9.651821662401753 6.197693887069379 5 -3 0
1218 305 2 0.55733 -9.812913100368602 -9.975649272654495 4.326783898312371 -2 -1 0
1233 309 1 1.71637987 -10.593284555194025 -10.253848331914288 6.23812614363537 5 -3 0
3450 309 9 -1.71637987 -10.568610245996533 -10.293035095287014 6.196529034369323 5 -3 0
1236 309 3 -1.11466 -10.632190385170093 -10.06661238962695 6.372169013241133 5 -3 0
2431 608 2 0.55733 -6.592099211579651 -9.771736475553004 6.005648546094461 1 1 0
493 124 1 1.71637987 -10.820732075422233 -9.704373685617107 9.352203440924034 -1 0 0
2562 641 2 0.55733 -6.881208354293402 -9.255238858691142 3.2249317106849578 -4 3 0
3223 94 9 -1.71637987 -12.298080040413403 -8.96906120389796 2.3250110488876814 3 -4 0
71 18 2 0.55733 -7.354143761299371 -8.218995254356894 7.219799814622522 8 -4 0
1657 415 1 1.71637987 -8.427233374653952 -11.410386550333408 8.454561142127174 3 -3 0
117 30 1 1.71637987 -6.4295246245234114 -10.002186353723452 -15.696192589690812 -2 -3 0
3532 415 9 -1.71637987 -8.44173925481227 -11.463018167911093 8.457235516184447 3 -3 0
1442 361 2 0.55733 -10.154437168251775 -8.192746910984388 -15.293644052086089 3 3 0
2683 671 2 0.55733 -10.497526331424725 -9.397442989445544 18.20156949082321 2 8 0
1143 286 2 0.55733 -6.2831653540030725 -8.649611276686926 14.48100271054018 -4 3 0
2190 548 2 0.55733 -9.26143388604017 -8.947321483867793 11.121300480753526 -2 -1 0
2485 622 1 1.71637987 -11.090264575376544 -8.661259425329101 14.408645912791721 5 -2 0
1144 286 3 -1.11466 -6.285211529651047 -8.972992084931263 13.710952473729554 -4 3 0
3549 401 9 -1.71637987 -6.995268055189408 -11.904616572785566 -17.638428925767844 -4 7 0
799 200 2 0.55733 -7.954349067418386 -8.335213427363579 15.60662567172056 8 5 0
797 200 1 1.71637987 -7.525345169701393 -8.818852127312988 16.310082159310216 8 5 0
2488 622 3 -1.11466 -11.054548338775138 -8.430794481762701 14.397245206605017 5 -2 0
1454 364 2 0.55733 -11.580014580994996 -12.332647755730955 14.899122605317544 1 0 0
1661 416 1 1.71637987 -10.380607103603555 -7.654283293462851 -13.348812109501273 6 3 0
2487 622 2 0.55733 -11.704032466290723 -7.963111063213316 14.633693056392792 5 -2 0
2192 548 3 -1.11466 -9.21129096829119 -8.23003790894324 11.54427843669075 -2 -1 0
504 126 3 -1.11466 -7.336723805468749 -11.645140862184235 17.261407368651433 -2 4 0
798 200 2 0.55733 -8.225109352999096 -9.036895786771332 16.922778324374992 8 5 0
3326 200 9 -1.71637987 -7.4302476096775045 -8.831092326892625 16.31226597339194 8 5 0
3759 622 9 -1.71637987 -11.106053024875088 -8.710101796232856 14.400421508358923 5 -2 0
800 200 3 -1.11466 -7.7517130567877714 -8.76507999578784 16.291923192443452 8 5 0
2684 671 3 -1.11466 -9.72054853360048 -9.697433413975611 18.255224690163804 2 8 0
3222 84 9 -1.71637987 -8.116408232910615 -10.63752539982045 11.094417838118584 -1 -9 0
333 84 1 1.71637987 -8.078431229481307 -10.683181464113186 11.1231843649148 -1 -9 0
336 84 3 -1.11466 -7.9157372282743 -10.803284257379703 11.244950459640338 -1 -9 0
334 84 2 0.55733 -8.225599735653327 -11.331291091593796 11.812342553997635 -1 -9 0
31 8 2 0.55733 -12.21018696225443 -8.227546087087267 12.376258611439207 -8 4 0
1455 364 2 0.55733 -11.500385649220652 -10.860007706779522 14.5508659096631 1 0 0
501 126 1 1.71637987 -7.263488603889182 -11.86713612405242 17.251632076369916 -2 4 0
118 30 2 0.55733 -6.637795393325156 -10.20264760653981 -14.783261258161422 -2 -3 0
1601 401 1 1.71637987 -7.000044152070143 -11.877171374603243 -17.639006164510953 -4 7 0
841 211 1 1.71637987 -6.373517441688594 -11.982354185407551 1.1327427353639485 5 2 0
2922 731 2 0.55733 -8.175515295672078 -8.911732097532575 1.5702279499508336 -5 -3 0
2826 707 2 0.55733 -11.894481327620747 -12.05433184745837 11.478321919129197 -3 4 0
120 30 3 -1.11466 -6.389566829341164 -9.867768642248837 -15.505348262603729 -2 -3 0
1355 339 2 0.55733 -12.312264794167852 -12.076843833659513 1.0068591026307434 6 5 0
398 100 2 0.55733 -8.880255585112488 -7.804687569243766 -10.019124883283157 1 7 0
3864 707 9 -1.71637987 -11.234646956211362 -12.019836860018415 10.764087169637813 -3 4 0
2825 707 1 1.71637987 -11.220084369156726 -12.055426907829894 10.799370796791301 -3 4 0
151 38 2 0.55733 -9.027990117372083 -7.604706637848445 3.656785808641793 -3 -2 0
2435 609 2 0.55733 -11.89676804099766 -7.623785846984978 5.807575120010009 -2 3 0
1270 318 2 0.55733 -12.399422393514355 -12.406155970517656 -5.060565232055019 2 -4 0
3906 752 9 -1.71637987 -9.591318284507977 -7.482824787772351 1.3630382672453298 -6 3 0
2342 586 2 0.55733 -8.21410638488661 -7.495885746595297 -14.797370061387436 7 -2 0
3005 752 1 1.71637987 -9.617266444462825 -7.465545447511408 1.3310662471899124 -6 3 0
337 85 1 1.71637987 -9.631717009529996 -12.416045473850916 18.89651076708263 -2 2 0
183 46 2 0.55733 -11.018597255594404 -4.215612623598659 -13.903920799376438 -2 -10 0
181 46 1 1.71637987 -10.18731375281788 -4.655738785606817 -14.073291549664646 -2 -10 0
184 46 3 -1.11466 -10.227266652345058 -4.47640192897754 -13.927409129398985 -2 -10 0
3152 46 9 -1.71637987 -10.17337988587617 -4.68805839088539 -14.114454443618813 -2 -10 0
182 46 2 0.55733 -9.553308633927804 -4.205375855105916 -13.518216145030266 -2 -10 0
958 240 2 0.55733 -7.731892839599898 -2.6573990196916837 -15.832303532853825 0 6 0
2225 557 1 1.71637987 -8.827275683380531 -3.471199528644299 -12.029844623046921 4 -5 0
3702 557 9 -1.71637987 -8.813034886083893 -3.519440991696359 -12.096418104590741 4 -5 0
3738 575 9 -1.71637987 -10.603237903100423 -5.086072719880042 -17.0652681414778 -9 -2 0
2228 557 3 -1.11466 -8.819374468630198 -3.3591506146457815 -11.82325603605089 4 -5 0
960 240 3 -1.11466 -7.578396583898113 -3.475108219716108 -15.872819629508438 0 6 0
957 240 1 1.71637987 -7.422521905496153 -3.537066120236035 -16.04005980966494 0 6 0
3355 240 9 -1.71637987 -7.382881259115337 -3.5812986555604596 -16.070396982648308 0 6 0
959 240 2 0.55733 -7.882453645002725 -4.108491040333837 -15.425685695427306 0 6 0
938 235 2 0.55733 -11.860552958948544 -6.673064344064622 9.985036184716495 -1 5 0
2226 557 2 0.55733 -9.252200274941849 -3.72828455887188 -11.213329442588888 4 -5 0
2298 575 2 0.55733 -10.578462761714034 -4.188672663152217 -17.493145536531237 -9 -2 0
1662 416 2 0.55733 -10.007504330535523 -6.785827175948949 -13.21151857632389 6 3 0
2297 575 1 1.71637987 -10.555357302958944 -5.04115166409929 -17.062753523900177 -9 -2 0
3249 132 9 -1.71637987 -11.592990770789559 -5.802836322423623 6.632205781116357 -2 5 0
2299 575 2 0.55733 -10.394075455436901 -4.8464622224036615 -16.139402135447025 -9 -2 0
2300 575 3 -1.11466 -10.52715113939753 -4.831447342835935 -16.963746886390037 -9 -2 0
2076 519 3 -1.11466 -6.555047774573562 -6.314224739943761 4.28604949225314 2 -1 0
1935 484 2 0.55733 -7.479617843966559 -4.853082767676146 -12.00523328718471 0 -3 0
2407 602 2 0.55733 -11.838587112408089 -2.818299821645135 -19.174009104148958 -4 0 0
525 132 1 1.71637987 -11.589045553982027 -5.747252854240594 6.6336760528517775 -2 5 0
2147 537 2 0.55733 -12.103202972039577 -3.873811346801835 -4.0551483450597505 -8 0 0
1285 322 1 1.71637987 -9.942893570271918 -3.7502408715236912 -9.626395195993561 -2 6 0
1933 484 1 1.71637987 -6.658406465111391 -5.228798516517235 -12.321627052297023 0 -3 0
1039 260 2 0.55733 -6.2869114362921685 -5.208437606308683 10.672980731953427 7 10 0
462 116 2 0.55733 -9.978105021751393 -2.658302737581293 -3.353124732210265 -4 -10 0
3713 586 9 -1.71637987 -7.436370694487103 -7.164789462198632 -14.168107636737174 7 -2 0
2898 725 2 0.55733 -12.107362461423484 -4.950129381098253 -7.232271495798194 4 6 0
1936 484 3 -1.11466 -6.875292121719191 -5.286184892400063 -12.386034273884956 0 -3 0
1287 322 2 0.55733 -9.4674705377939 -3.374939605813128 -8.885931862051764 -2 6 0
589 148 1 1.71637987 -8.212573343213004 -4.826906994291663 12.869017530149911 -1 -3 0
528 132 3 -1.11466 -11.642875100816749 -5.529631482744803 6.705617908903384 -2 5 0
206 52 2 0.55733 -6.439839753803152 -4.588831684328218 -17.036642745960993 3 1 0
2946 737 2 0.55733 -10.763477308846278 -7.218616050645075 -1.4793259641745344 6 2 0
138 35 2 0.55733 -12.015699894788044 -5.3550975222248365 14.351556060725507 0 5 0
328 82 3 -1.11466 -7.637915777311077 -6.449881360007192 18.466283053826494 -2 -4 0
352 88 3 -1.11466 -8.150751069898138 -6.667364708164944 -6.727214674879314 3 -3 0
847 212 2 0.55733 -11.325856608448772 -6.428401335897776 -7.829961108158919 -1 3 0
848 212 3 -1.11466 -10.634962329683786 -6.004759595860477 -8.029327233055074 -1 3 0
846 212 2 0.55733 -9.908684118154937 -5.930923520143721 -7.627412794901079 -1 3 0
1286 322 2 0.55733 -10.365260997475938 -4.5328583926008665 -9.275286362686167 -2 6 0
1304 326 3 -1.11466 -7.942798217375925 -4.419009813320007 -5.329859506238844 6 -1 0
1301 326 1 1.71637987 -7.9706405243504115 -4.382481692380984 -5.098815149885392 6 -1 0
3460 326 9 -1.71637987 -8.002444505627995 -4.378059769523583 -5.009640365960822 6 -1 0
3352 212 9 -1.71637987 -10.648814367636747 -5.835185400305924 -8.305617710998465 -1 3 0
400 100 3 -1.11466 -9.15444861700883 -7.018005643975096 -10.056130840547741 1 7 0
845 212 1 1.71637987 -10.647181976718246 -5.8878080897089715 -8.233536267269868 -1 3 0
2262 566 2 0.55733 -9.730979101581136 -4.534842102157851 -4.535074257860064 5 3 0
3694 566 9 -1.71637987 -10.611780423953766 -4.476185641115801 -4.035620425723062 5 3 0
2264 566 3 -1.11466 -10.359739078078286 -4.665152573497173 -4.002168410356718 5 3 0
2261 566 1 1.71637987 -10.550270294611162 -4.536369612854129 -4.042732890578635 5 3 0
3379 88 9 -1.71637987 -8.275306654617506 -6.431257018586671 -6.551217441521843 3 -3 0
1303 326 2 0.55733 -7.828033879973868 -3.7299332687881828 -5.784317393228974 6 -1 0
349 88 1 1.71637987 -8.248967680765412 -6.503319338912015 -6.5957726065262445 3 -3 0
350 88 2 0.55733 -7.691918827347686 -6.377699261635264 -7.361851855133607 3 -3 0
3889 100 9 -1.71637987 -8.970055647826461 -6.833240083814149 -10.172321684453609 1 7 0
1302 326 2 0.55733 -7.970527363806325 -5.221428048049135 -5.556058937577098 6 -1 0
383 96 2 0.55733 -7.431482309734096 -6.362227168740856 -9.24879123586173 -6 -1 0
1932 483 3 -1.11466 -6.495653915789317 -3.3179768072506586 -9.341750866131665 -10 0 0
3204 96 9 -1.71637987 -6.663837923920147 -5.984127449789162 -8.767883172812367 -6 -1 0
397 100 1 1.71637987 -9.016805830602515 -6.872378931212773 -10.178859468882475 1 7 0
399 100 2 0.55733 -9.834998675380964 -6.663649465353248 -9.729638562869086 1 7 0
381 96 1 1.71637987 -6.64781872943407 -6.029771421462234 -8.811336046443644 -6 -1 0
3232 82 9 -1.71637987 -7.478508842432428 -6.214429117686433 18.53243138261772 -2 -4 0
384 96 3 -1.11466 -6.6632317965157855 -6.212452839455606 -8.959799302213264 -6 -1 0
3439 322 9 -1.71637987 -9.94242723626915 -3.7052163511547396 -9.705991951046931 -2 6 0
2073 519 1 1.71637987 -6.431507648646031 -6.113585297174917 4.302429036079528 2 -1 0
2050 513 2 0.55733 -11.474039418318087 -5.889941928919178 0.9567389937902682 -2 -7 0
3827 668 9 -1.71637987 -6.659338661701065 -4.446901643528961 -2.4171461130722864 9 1 0
2672 668 3 -1.11466 -6.770601621294253 -4.1975830119851345 -2.590317513533745 9 1 0
2670 668 2 0.55733 -7.129240800871241 -4.381664173542437 -3.3199738056357475 9 1 0
2669 668 1 1.71637987 -6.681207849602155 -4.380033442724086 -2.476625353150464 9 1 0
137 35 1 1.71637987 -11.57735640031211 -4.507245815544432 14.300137125221665 0 5 0
2947 737 2 0.55733 -9.479568024468573 -6.413068066180373 -1.4499362373464808 6 2 0
140 35 3 -1.11466 -11.583709445346889 -4.675864267021966 14.135465671640778 0 5 0
2263 566 2 0.55733 -10.418938321882244 -5.180828936716584 -3.3486031697104006 5 3 0
366 92 2 0.55733 -12.125975167638376 -4.112287019090979 16.35976202566832 0 0 0
2052 513 3 -1.11466 -11.70151953008825 -5.1513697318471525 0.642699121292308 -2 -7 0
2948 737 3 -1.11466 -10.239476958398427 -6.617982816421735 -1.7259229452690277 6 2 0
862 216 2 0.55733 -7.528823733210555 -5.283238979178236 -1.0636843241408305 -4 -2 0
861 216 1 1.71637987 -8.046777248160744 -5.676505505545852 -0.3612193838064899 -4 -2 0
3224 720 9 -1.71637987 -9.585786856247125 -3.3556382357129007 0.2482343536868603 2 0 0
2880 720 3 -1.11466 -9.301119264367834 -3.3688562448414636 0.2914321688204809 2 0 0
2878 720 2 0.55733 -9.000444146816053 -4.127613906837905 0.11466192593035449 2 0 0
2877 720 1 1.71637987 -9.53356651511322 -3.3464559510679837 0.26597357885581097 2 0 0
3351 216 9 -1.71637987 -8.130134158321791 -5.677056855586862 -0.3427295648554498 -4 -2 0
864 216 3 -1.11466 -7.811601397249882 -5.658656011649156 -0.3750365926097019 -4 -2 0
1930 483 2 0.55733 -6.542591256002794 -4.1505307362315484 -9.361534916776577 -10 0 0
3007 752 2 0.55733 -9.326513465722124 -6.719459378785096 0.8073321682568557 -6 3 0
863 216 2 0.55733 -7.402384467465805 -5.984022459861323 0.27444680978687863 -4 -2 0
2051 513 2 0.55733 -11.309968317906362 -4.413853700991211 0.6517468923663752 -2 -7 0
3899 737 9 -1.71637987 -10.319473088464385 -6.449897401595822 -1.9536115164928376 6 2 0
2945 737 1 1.71637987 -10.31800388658608 -6.484175431070816 -1.8996188334442965 6 2 0
3632 513 9 -1.71637987 -11.958188020064284 -5.170603599108388 0.5321031346176671 -2 -7 0
2671 668 2 0.55733 -6.683215464987453 -3.466850525495712 -2.19695569788075 9 1 0
2879 720 2 0.55733 -8.912108785120306 -2.677062128348082 0.5495397012122639 2 0 0
2049 513 1 1.71637987 -11.908237891928096 -5.151542449012432 0.5357262225729997 -2 -7 0
365 92 1 1.71637987 -11.956749424781032 -4.247111483857571 17.291015974727596 0 0 0
325 82 1 1.71637987 -7.518827181020325 -6.266002272717879 18.553110975643943 -2 -4 0
3228 92 9 -1.71637987 -11.986295898076921 -4.2761710555783425 17.32933098695602 0 0 0
3262 148 9 -1.71637987 -8.282442952819503 -4.866106321409731 12.869555201465893 -1 -3 0
326 82 2 0.55733 -7.217154960672406 -7.1695498192842 18.470415697937646 -2 -4 0
368 92 3 -1.11466 -11.836310344439045 -4.115256372475209 17.142213151562984 0 0 0
940 235 3 -1.11466 -11.449854281704871 -6.125420861091547 9.506893375832824 -1 5 0
782 196 2 0.55733 -7.913257417778833 -6.902710551608885 9.129779441265281 -5 -2 0
3157 35 9 -1.71637987 -11.622716029870348 -4.437313916940257 14.358034323501272 0 5 0
527 132 2 0.55733 -10.983861310628006 -5.048920317376668 6.88020563645741 -2 5 0
3674 519 9 -1.71637987 -6.40672702851864 -6.062196181629358 4.282289860827483 2 -1 0
152 38 3 -1.11466 -9.072687579371298 -6.7910247873797 3.830970794957193 -3 -2 0
149 38 1 1.71637987 -9.056758049318168 -6.739760766063175 4.060336136889763 -3 -2 0
3155 38 9 -1.71637987 -8.99556822353974 -6.722569038904839 4.095932578499958 -3 -2 0
590 148 2 0.55733 -7.964727853481647 -4.284357136937397 13.616523201749013 -1 -3 0
939 235 2 0.55733 -11.416335063411038 -6.0485114840935434 8.676523800657092 -1 5 0
2227 557 2 0.55733 -8.365297764895603 -2.6594197979047305 -11.819983712479853 4 -5 0
150 38 2 0.55733 -9.169805366876027 -6.1321665517274235 3.3295688621748525 -3 -2 0
3309 161 9 -1.71637987 -10.854752091241064 -4.584483549511551 3.4888326169655888 -3 1 0
2074 519 2 0.55733 -7.378867663817003 -6.208407806508612 4.21323900519428 2 -1 0
644 161 3 -1.11466 -10.90402913124469 -4.401812360287596 3.6889902427196555 -3 1 0
3595 459 9 -1.71637987 -10.087187777227571 -3.491851621315957 7.261543231800335 -2 -7 0
1833 459 1 1.71637987 -10.064566506884033 -3.476877533388424 7.313383371824826 -2 -7 0
641 161 1 1.71637987 -10.867137910308486 -4.549855214410677 3.512734016183482 -3 1 0
2459 615 2 0.55733 -10.795223027336728 -4.828586573247658 11.017107708621555 0 -2 0