LAMMPS data file via write_data, version 29 Sep 2021, timestep = 6000000

3910 atoms
14 atom types
3109 bonds
9 bond types
2305 angles
3 angle types
768 impropers
1 improper types

-12.418372 12.418372 xlo xhi
-12.418372 12.418372 ylo yhi
-55.882675 55.882675 zlo zhi

Masses

1 15.2
2 1
3 0.001
4 15.2
5 15.2
6 22.2
7 126.2
8 34.2
9 0.8
10 0.8
11 0.8
12 0.8
13 0.8
14 0.8

PairIJ Coeffs # lj/cut/thole/long/omp

1 1 0.18985 3.18395 0.97825 2.6 12
1 2 0 1.59197 0 2.6 12
1 3 0 1.59197 0 2.6 12
1 4 0.16326 3.19381 0.96402 2.6 12
1 5 0.16326 3.19381 0.96402 2.6 12
1 6 0.13292 2.72788 0.48454 2.6 12
1 7 0.13706 4.15423 2.60182 2.6 12
1 8 0.13466 3.76133 1.89993 2.6 12
1 9 0.01055 3.18395 0.97825 2.6 12
1 10 0.00907 3.19381 0.96402 2.6 12
1 11 0.00907 3.19381 0.96402 2.6 12
1 12 0.00505 2.72788 0.48454 2.6 12
1 13 0.00091 4.15423 2.60182 2.6 12
1 14 0.00332 3.76133 1.89993 2.6 12
2 2 0 0 0 2.6 12
2 3 0 0 0 2.6 12
2 4 0 1.60183 0 2.6 12
2 5 0 1.60183 0 2.6 12
2 6 0 1.1359 0 2.6 12
2 7 0 2.56225 0 2.6 12
2 8 0 2.16935 0 2.6 12
2 9 0 1.59197 0 2.6 12
2 10 0 1.60183 0 2.6 12
2 11 0 1.60183 0 2.6 12
2 12 0 1.1359 0 2.6 12
2 13 0 2.56225 0 2.6 12
2 14 0 2.16935 0 2.6 12
3 3 0 0 0 2.6 12
3 4 0 1.60183 0 2.6 12
3 5 0 1.60183 0 2.6 12
3 6 0 1.1359 0 2.6 12
3 7 0 2.56225 0 2.6 12
3 8 0 2.16935 0 2.6 12
3 9 0 1.59197 0 2.6 12
3 10 0 1.60183 0 2.6 12
3 11 0 1.60183 0 2.6 12
3 12 0 1.1359 0 2.6 12
3 13 0 2.56225 0 2.6 12
3 14 0 2.16935 0 2.6 12
4 4 0.1404 3.20367 0.95 2.6 12
4 5 0.1404 3.20367 0.95 2.6 12
4 6 0.11431 2.73773 0.47749 2.6 12
4 7 0.11787 4.16409 2.56398 2.6 12
4 8 0.1158 3.77119 1.8723 2.6 12
4 9 0.00907 3.19381 0.96402 2.6 12
4 10 0.0078 3.20367 0.95 2.6 12
4 11 0.0078 3.20367 0.95 2.6 12
4 12 0.00434 2.73773 0.47749 2.6 12
4 13 0.00079 4.16409 2.56398 2.6 12
4 14 0.00285 3.77119 1.8723 2.6 12
5 5 0.1404 3.20367 0.95 2.6 12
5 6 0.11431 2.73773 0.47749 2.6 12
5 7 0.11787 4.16409 2.56398 2.6 12
5 8 0.1158 3.77119 1.8723 2.6 12
5 9 0.00907 3.19381 0.96402 2.6 12
5 10 0.0078 3.20367 0.95 2.6 12
5 11 0.0078 3.20367 0.95 2.6 12
5 12 0.00434 2.73773 0.47749 2.6 12
5 13 0.00079 4.16409 2.56398 2.6 12
5 14 0.00285 3.77119 1.8723 2.6 12
6 6 0.09304 2.2718 0.24 2.6 12
6 7 0.09589 3.69815 1.28872 2.6 12
6 8 0.09424 3.30525 0.94106 2.6 12
6 9 0.00726 2.72788 0.48454 2.6 12
6 10 0.00624 2.73773 0.47749 2.6 12
6 11 0.00624 2.73773 0.47749 2.6 12
6 12 0.00348 2.2718 0.24 2.6 12
6 13 0.00063 3.69815 1.28872 2.6 12
6 14 0.00229 3.30525 0.94106 2.6 12
7 7 0.09874 5.1245 6.92 2.6 12
7 8 0.09708 4.7316 5.0532 2.6 12
7 9 0.00726 4.15423 2.60182 2.6 12
7 10 0.00624 4.16409 2.56398 2.6 12
7 11 0.00624 4.16409 2.56398 2.6 12
7 12 0.00348 3.69815 1.28872 2.6 12
7 13 0.00063 5.1245 6.92 2.6 12
7 14 0.00229 4.7316 5.0532 2.6 12
8 8 0.09543 4.3387 3.69 2.6 12
8 9 0.00726 3.76133 1.89993 2.6 12
8 10 0.00624 3.77119 1.8723 2.6 12
8 11 0.00624 3.77119 1.8723 2.6 12
8 12 0.00348 3.30525 0.94106 2.6 12
8 13 0.00063 4.7316 5.0532 2.6 12
8 14 0.00229 4.3387 3.69 2.6 12
9 9 0 3.18395 0.97825 2.6 12
9 10 0 3.19381 0.96402 2.6 12
9 11 0 3.19381 0.96402 2.6 12
9 12 0 2.72788 0.48454 2.6 12
9 13 0 4.15423 2.60182 2.6 12
9 14 0 3.76133 1.89993 2.6 12
10 10 0 3.20367 0.95 2.6 12
10 11 0 3.20367 0.95 2.6 12
10 12 0 2.73773 0.47749 2.6 12
10 13 0 4.16409 2.56398 2.6 12
10 14 0 3.77119 1.8723 2.6 12
11 11 0 3.20367 0.95 2.6 12
11 12 0 2.73773 0.47749 2.6 12
11 13 0 4.16409 2.56398 2.6 12
11 14 0 3.77119 1.8723 2.6 12
12 12 0 2.2718 0.24 2.6 12
12 13 0 3.69815 1.28872 2.6 12
12 14 0 3.30525 0.94106 2.6 12
13 13 0 5.1245 6.92 2.6 12
13 14 0 4.7316 5.0532 2.6 12
14 14 0 4.3387 3.69 2.6 12

Bond Coeffs # harmonic/omp

1 10000 0.9572
2 10000 0.24034
3 10000 1.278
4 500 0
5 500 0
6 500 0
7 500 0
8 500 0
9 500 0

Angle Coeffs # harmonic/omp

1 10000 104.52
2 10000 52.26
3 10000 116.8

Improper Coeffs # harmonic/omp

1 10000 0

Atoms # full

2179 545 2 0.55733 -9.285044974927894 -11.187839490062386 -19.18838600781749 -1 1 0
1067 267 2 0.55733 -10.711299401802792 -8.872455228794497 -16.19775586578042 1 -3 0
2177 545 1 1.71637987 -10.237027826704136 -11.260552688999356 -19.185678919768748 -1 1 0
2180 545 3 -1.11466 -10.104090173558369 -11.119606726011863 -19.052766489128487 -1 1 0
3620 545 9 -1.71637987 -10.246591403709534 -11.317263599565232 -19.172367896979008 -1 1 0
2736 684 3 -1.11466 -8.813667414981909 -11.025429929152185 -14.048782260165702 -2 0 0
2735 684 2 0.55733 -8.285839194497616 -10.418626085151832 -14.271496576096734 -2 0 0
2178 545 2 0.55733 -10.52945104255468 -10.632962732739067 -18.5243440538018 -1 1 0
2935 734 2 0.55733 -6.693990422786853 -8.556504357021298 -14.574550447440812 1 3 0
2933 734 1 1.71637987 -6.888838113220527 -9.48961851078908 -14.641943802592506 1 3 0
2936 734 3 -1.11466 -6.679398474463846 -9.389832968843827 -14.615413392873569 1 3 0
3860 734 9 -1.71637987 -6.9627406571986485 -9.53386859620692 -14.661630319023544 1 3 0
3395 267 9 -1.71637987 -10.737290927118659 -9.594615471732986 -16.931647472085256 1 -3 0
1065 267 1 1.71637987 -10.766900987819433 -9.572489475537962 -16.84415005944613 1 -3 0
187 47 2 0.55733 -8.873477998206473 -11.306474521606598 -11.97107731671588 0 -2 0
2733 684 1 1.71637987 -8.739303098485662 -11.160133511297477 -13.873045052861151 -2 0 0
3848 684 9 -1.71637987 -8.708127687284117 -11.197919542273695 -13.81515701009663 -2 0 0
1068 267 3 -1.11466 -10.857210933840188 -9.570064203892722 -16.630250647606285 1 -3 0
1066 267 2 0.55733 -11.274092190070585 -10.261651052154832 -16.422069629831444 1 -3 0
2734 684 2 0.55733 -9.563810315577713 -11.230178110662404 -14.350796283402493 -2 0 0
505 127 1 1.71637987 -11.409795082780622 -12.293526236168617 19.93617212729448 1 0 0
3204 103 9 -1.71637987 -11.399670625091021 -11.58705562201356 -14.568221801692111 0 0 0
409 103 1 1.71637987 -11.449337007478904 -11.617416662938062 -14.53837497864222 0 0 0
461 116 1 1.71637987 -12.217766271363145 -11.16123110560491 14.483173313841014 0 -2 0
2259 565 2 0.55733 -7.744082551808067 -9.888370893838799 -16.622431632289608 -2 -2 0
2258 565 2 0.55733 -8.940957698937323 -9.950171591690289 -17.551431559282786 -2 -2 0
2260 565 3 -1.11466 -8.129551705517166 -9.886858168413202 -17.3628494308457 -2 -2 0
2257 565 1 1.71637987 -7.989331350033096 -9.865444721156331 -17.547295290104056 -2 -2 0
2743 686 2 0.55733 -8.77533432750511 -10.796613745725287 -7.393708711261758 -1 1 0
3112 47 9 -1.71637987 -9.18739308467566 -11.63006796291303 -11.068304798996406 0 -2 0
185 47 1 1.71637987 -9.183847989204535 -11.587010477739971 -11.111587478834622 0 -2 0
188 47 3 -1.11466 -9.309643231243408 -11.49419726408558 -11.285319934938556 0 -2 0
1890 473 2 0.55733 -11.217001593688094 -10.338457105590324 -6.58664220590167 0 0 0
186 47 2 0.55733 -10.121845878082196 -11.409115011430478 -11.117903441520545 0 -2 0
1095 274 2 0.55733 -12.383958816135065 -10.4870847534615 -9.098495906099046 1 1 0
1892 473 3 -1.11466 -11.294232549835966 -11.154040010110306 -6.433100896785011 0 0 0
410 103 2 0.55733 -11.961201980660084 -11.21510129670601 -13.838073872284877 0 0 0
3832 686 9 -1.71637987 -8.316586790007465 -9.912382704050668 -7.53026301055462 -1 1 0
2031 508 2 0.55733 -8.436946468361027 -11.49308526270795 -4.51837542186903 -1 -1 0
2030 508 2 0.55733 -9.807405555719555 -12.019741145743595 -4.895097566482271 -1 -1 0
2744 686 3 -1.11466 -8.491348196787008 -10.019384092234834 -7.298414026731656 -1 1 0
2741 686 1 1.71637987 -8.36640897838986 -9.936734103536777 -7.483585855809801 -1 1 0
1235 309 2 0.55733 -12.070083795481613 -11.898245573245669 -18.216011029683045 2 1 0
1945 487 1 1.71637987 -7.401457927651923 -9.747204393238787 -1.7802204461119537 2 -1 0
1889 473 1 1.71637987 -11.188676470923056 -11.22809487442083 -6.237691527003415 0 0 0
1891 473 2 0.55733 -11.69299021136683 -11.751630294913754 -6.856428532215703 0 0 0
3589 487 9 -1.71637987 -7.41455990086459 -9.71047382238412 -1.798025393106706 2 -1 0
3572 473 9 -1.71637987 -11.156981389481697 -11.24148661121604 -6.206338432103029 0 0 0
1495 374 2 0.55733 -6.774992997641246 -9.622293718078891 -8.313651515397197 -4 -1 0
1867 467 2 0.55733 -9.486130630423691 -9.566462620510462 -9.940772484224 1 1 0
2032 508 3 -1.11466 -9.213443063761877 -11.758937274837399 -4.370061413938353 -1 -1 0
1618 405 2 0.55733 -10.946544285136563 -8.55384516153625 3.8273345254976006 1 2 0
3134 22 9 -1.71637987 -12.106820936103174 -8.35959206851485 -6.905289303081109 -4 2 0
1868 467 3 -1.11466 -10.115434641559567 -9.063166676155477 -10.154875854311172 1 1 0
3615 508 9 -1.71637987 -9.303629621426696 -11.723403634828427 -4.081502293346844 -1 -1 0
2029 508 1 1.71637987 -9.27535528057478 -11.761151083278273 -4.142668734683311 -1 -1 0
146 37 2 0.55733 -9.895459134931844 -10.075132800947694 -3.9486673090382616 -2 2 0
2532 633 3 -1.11466 -12.244050782731248 -11.435092260966567 2.8162842343067838 -1 -1 0
2686 672 2 0.55733 -12.097112776488993 -8.954902655046249 -13.96386977857319 0 -1 0
506 127 2 0.55733 -11.428346469097058 -11.49018388717651 20.45583358059685 1 0 0
1866 467 2 0.55733 -10.887045866023286 -8.996086599385993 -9.846500967994848 1 1 0
2742 686 2 0.55733 -8.579380422969512 -9.481165138432143 -6.668098117784221 -1 1 0
464 116 3 -1.11466 -12.286444785342825 -10.966553839868922 14.367637281337034 0 -2 0
3577 467 9 -1.71637987 -10.049442461796959 -8.878413588383593 -10.378993164222681 1 1 0
1865 467 1 1.71637987 -10.067352709798831 -8.915409223712023 -10.331668918595835 1 1 0
2746 687 2 0.55733 -6.514078091293408 -12.256288982676672 6.2923518660757605 0 -2 0
147 37 2 0.55733 -11.048365083311964 -9.113242591693098 -3.7441374267776215 -2 2 0
1644 411 3 -1.11466 -11.632361313838823 -9.648730694680381 20.83522524806928 -1 0 0
1641 411 1 1.71637987 -11.623243888762321 -9.756424709502758 21.040701160536745 -1 0 0
689 173 1 1.71637987 -6.813047985205223 -11.57341446598138 -5.197000533947355 -3 2 0
148 37 3 -1.11466 -10.260066064830095 -9.326924616260472 -3.914712372757823 -2 2 0
2531 633 2 0.55733 -11.766726374149584 -10.81509831242562 3.1023617106077235 -1 -1 0
2274 569 2 0.55733 -9.582557127538289 -11.40324022789889 -2.032348498173868 0 0 0
2276 569 3 -1.11466 -10.173638014732843 -11.115887404277153 -1.5194050174235745 0 0 0
3713 569 9 -1.71637987 -10.31209725705021 -11.355515460747124 -1.3717485339337998 0 0 0
2273 569 1 1.71637987 -10.284286475891129 -11.280404522733594 -1.3956032723376937 0 0 0
2275 569 2 0.55733 -10.438533257460263 -10.336988844334924 -1.3787689289198863 0 0 0
3877 751 9 -1.71637987 -8.87862797293385 -11.95671339375643 1.229377213316782 1 1 0
3001 751 1 1.71637987 -8.845355826410682 -11.901347645217163 1.2000080049989135 1 1 0
3004 751 3 -1.11466 -8.692462676025052 -11.827566142359196 1.0398783709299086 1 1 0
3036 759 3 -1.11466 -8.509333688818813 -12.396370006571244 13.51644232359245 0 -2 0
1808 452 3 -1.11466 -6.578898213331845 -9.581641654621732 17.771170458311005 0 1 0
3396 278 9 -1.71637987 -11.65273801204018 -12.296531008758992 -8.747204382664968 1 0 0
3003 751 2 0.55733 -9.02895983558798 -11.612729813551848 0.3068388193808411 1 1 0
2581 646 1 1.71637987 -7.865017993570041 -8.975787234594018 2.5249698009681225 2 0 0
3752 646 9 -1.71637987 -7.805735728532057 -9.023348629812455 2.5392012335959273 2 0 0
2584 646 3 -1.11466 -8.050081570483828 -8.832359158525394 2.512847925146771 2 0 0
3213 127 9 -1.71637987 -11.408902291007767 -12.347930636876818 19.952756540277456 1 0 0
2582 646 2 0.55733 -8.679530085071454 -9.035758651279874 3.0208880114764964 2 0 0
3446 327 9 -1.71637987 -11.265026613329061 -8.465036217888715 -1.1224943158503902 2 1 0
3245 173 9 -1.71637987 -6.848619811039979 -11.586516205705395 -5.101443411377938 -3 2 0
3002 751 2 0.55733 -7.897938266253977 -11.824140489503192 1.2938384100696942 1 1 0
1946 487 2 0.55733 -7.138803494081097 -10.658278548294742 -1.9091455175827057 2 -1 0
1305 327 1 1.71637987 -11.293900980827463 -8.395463905582643 -1.1431280447374925 2 1 0
311 78 2 0.55733 -6.264047455134538 -8.700662417841558 0.7529133003463894 -1 0 0
85 22 1 1.71637987 -12.103815299094604 -8.305189388940546 -6.852208718618292 -4 2 0
1948 487 3 -1.11466 -7.231772092410921 -9.865791258074397 -1.666340183807632 2 -1 0
3135 37 9 -1.71637987 -10.084051426303201 -9.08321523884999 -3.977862383321822 -2 2 0
1306 327 2 0.55733 -11.93943609382457 -8.339741179905372 -1.8466778758737268 2 1 0
2323 581 2 0.55733 -6.446109954231227 -11.473873229998153 15.53943956177292 1 -2 0
692 173 3 -1.11466 -6.751626373826927 -11.595615815144665 -5.423975629356947 -3 2 0
3551 411 9 -1.71637987 -11.621051301222712 -9.815051773058903 21.05109895163701 -1 0 0
462 116 2 0.55733 -11.740179444703946 -10.33779674372645 14.390069938975007 0 -2 0
1643 411 2 0.55733 -10.89884759434679 -9.584417873643948 20.44202080005025 -1 0 0
856 214 3 -1.11466 -9.655672476843202 -8.536067087675471 18.677044665416524 0 4 0
455 114 2 0.55733 -6.637575602837383 -10.07485781767108 3.5204965952386984 1 3 0
412 103 3 -1.11466 -11.617475026783664 -11.717721170050416 -14.407704893304043 0 0 0
2270 568 2 0.55733 -9.701085340581438 -9.007394428276829 8.163126096871007 1 0 0
3027 757 2 0.55733 -8.271450460866326 -11.718439315129984 11.384189995448317 0 0 0
3708 581 9 -1.71637987 -6.5719310343376565 -11.85333627611041 16.432285481223904 1 -2 0
2748 687 3 -1.11466 -7.001547547131428 -11.593847730158028 6.4335659729049075 0 -2 0
2745 687 1 1.71637987 -6.8929239170840795 -11.387539211977558 6.426264345324708 0 -2 0
3844 687 9 -1.71637987 -6.855718671377377 -11.311093518302522 6.412908303032191 0 -2 0
2747 687 2 0.55733 -7.819200767505638 -11.547045547437497 6.597855280469273 0 -2 0
1466 367 2 0.55733 -10.277020388924704 -11.56311574805624 5.726610974760198 3 1 0
3508 367 9 -1.71637987 -10.644319743415181 -10.69315861478435 6.041844770240973 3 1 0
1465 367 1 1.71637987 -10.596485425811386 -10.75114523230409 6.117990956581262 3 1 0
1467 367 2 0.55733 -10.560107586069195 -10.901349883670573 7.059457746157472 3 1 0
1333 334 1 1.71637987 -10.23095130275989 -11.06748879053095 8.694802087684886 -2 -1 0
1336 334 3 -1.11466 -10.21015257971371 -11.187196302484104 8.895845065850104 -2 -1 0
3423 334 9 -1.71637987 -10.237009154821344 -11.021241609920406 8.591169491417524 -2 -1 0
1619 405 2 0.55733 -10.57252966496475 -9.857117334170388 4.505045124996175 1 2 0
1334 334 2 0.55733 -10.874917472463615 -11.651229694176406 9.09420119547239 -2 -1 0
1468 367 3 -1.11466 -10.524753074786592 -10.945649043339007 6.2286273286108536 3 1 0
1335 334 2 0.55733 -9.486844139280214 -11.073926987361675 9.296097748137928 -2 -1 0
1620 405 3 -1.11466 -10.622662678591272 -9.321765482141032 3.86730430518554 1 2 0
3028 757 3 -1.11466 -8.02727110236522 -11.19247431879793 10.785089654516279 0 0 0
3025 757 1 1.71637987 -8.158296998294013 -11.198993315747353 10.591588220579263 0 0 0
3872 757 9 -1.71637987 -8.205856542299115 -11.227773825339286 10.525903298648227 0 0 0
3553 405 9 -1.71637987 -10.528003551080504 -9.4254761660659 3.616493829531956 1 2 0
1617 405 1 1.71637987 -10.531147621369524 -9.401069811244982 3.666021091143477 1 2 0
2972 743 3 -1.11466 -10.470426165812869 -8.633496125987383 14.2482725359683 0 1 0
3026 757 2 0.55733 -7.393644529621631 -10.650451542444516 10.76265511005657 0 0 0
1635 409 2 0.55733 -6.253036685425209 -9.434045156354497 6.868583653970907 3 -1 0
1642 411 2 0.55733 -12.392440433142458 -9.386726675993293 20.61163879560129 -1 0 0
507 127 2 0.55733 -12.030298897098374 -12.142489764941084 19.226307513422114 1 0 0
690 173 2 0.55733 -7.23814713768518 -12.107691668771562 -5.867764491589151 -3 2 0
2148 537 3 -1.11466 -12.416537021841268 -8.713123073594673 16.87565722941151 0 -1 0
1805 452 1 1.71637987 -6.734920426490955 -9.408897979970382 17.735902532671723 0 1 0
1807 452 2 0.55733 -6.715461873340081 -10.26907225274675 17.31831044580682 0 1 0
1947 487 2 0.55733 -6.826079438810997 -9.423996183245128 -1.0878079519109254 2 -1 0
1991 498 2 0.55733 -7.0655299869297945 -11.127484729827918 13.287514422781829 -1 -1 0
886 222 2 0.55733 -7.5966936965125225 -8.462377897512129 11.523440490813904 0 -2 0
1989 498 1 1.71637987 -6.242642111866069 -10.663451430220727 13.434901910458763 -1 -1 0
1109 278 1 1.71637987 -11.639562858173768 -12.36820579468997 -8.76139664942528 1 0 0
885 222 1 1.71637987 -6.779696443823761 -8.885843342479268 11.258624803907892 0 -2 0
1657 415 1 1.71637987 -6.28760106023025 -12.318214004587434 -2.6630449865443233 0 -2 0
145 37 1 1.71637987 -10.115064598054216 -9.146463913569672 -3.9589741455834666 -2 2 0
3033 759 1 1.71637987 -8.485224771708003 -12.219094358649702 13.36476427257925 0 -2 0
3336 222 9 -1.71637987 -6.768373342629242 -8.956193457713056 11.277586455145881 0 -2 0
3318 214 9 -1.71637987 -9.821322022578991 -8.685562169968836 18.808647131736127 0 4 0
2969 743 1 1.71637987 -10.486532429240798 -8.744164729989722 14.044688661001768 0 1 0
3885 743 9 -1.71637987 -10.497245912541608 -8.770781867950094 14.018359612617717 0 1 0
3886 759 9 -1.71637987 -8.445422058426528 -12.167225476444806 13.317335612744813 0 -2 0
853 214 1 1.71637987 -9.799030008261584 -8.673401351862314 18.80188470525988 0 4 0
3676 565 9 -1.71637987 -7.9827033408639245 -9.849315435294079 -17.586325144489646 -2 -2 0
854 214 2 0.55733 -9.041984926041048 -8.941843523098864 18.282612465179056 0 4 0
1659 415 2 0.55733 -6.443071588672653 -12.038125222673818 -3.5641830557480914 0 -2 0
3567 452 9 -1.71637987 -6.778526902141756 -9.363249231995209 17.729847920662227 0 1 0
3409 116 9 -1.71637987 -12.198157311902607 -11.20269732760948 14.560389255635997 0 -2 0
1992 498 3 -1.11466 -6.396401963105481 -10.629203786131377 13.261950779012261 -1 -1 0
2321 581 1 1.71637987 -6.555478597056972 -11.889374715224152 16.39335069952211 1 -2 0
2530 633 2 0.55733 -12.041806908894555 -12.198897001343697 2.549884235405962 -1 -1 0
888 222 3 -1.11466 -6.8497100683361865 -8.667672525544544 11.211844502148674 0 -2 0
2324 581 3 -1.11466 -6.380755381949324 -11.921265600104544 16.239271097554724 1 -2 0
508 127 3 -1.11466 -11.537016920342385 -12.102387496599263 19.898139034015955 1 0 0
3555 415 9 -1.71637987 -6.276018178732321 -12.292844421485714 -2.6209133668042 0 -2 0
2970 743 2 0.55733 -9.728218151984926 -8.694811359197574 14.625995104896031 0 1 0
3035 759 2 0.55733 -9.19647862746594 -12.361048425352111 13.987510028773608 0 -2 0
1571 393 2 0.55733 -10.927159665417646 -6.486815567649667 -18.712000707768542 -1 1 0
1572 393 3 -1.11466 -11.418704986185098 -6.734640504174441 -19.34057238326522 -1 1 0
3500 393 9 -1.71637987 -11.66969130253746 -6.661755160611006 -19.330834279056944 -1 1 0
1569 393 1 1.71637987 -11.637009954657707 -6.655678468918401 -19.330660002496497 -1 1 0
1570 393 2 0.55733 -11.252462199683096 -7.221777289446159 -19.99822219668903 -1 1 0
1615 404 2 0.55733 -6.275977792507842 -5.972575554674874 -8.057648180831924 -2 -2 0
3388 283 9 -1.71637987 -8.9598732273288 -6.728250662184755 -17.85908912780411 2 1 0
1129 283 1 1.71637987 -8.899264868385893 -6.756290590989784 -17.86837836371236 2 1 0
1761 441 1 1.71637987 -10.636166456774507 -7.960445680909395 -14.740076965999265 3 -3 0
806 202 2 0.55733 -6.374099855325926 -8.097743533263976 -2.519254126754907 0 3 0
1763 441 2 0.55733 -11.217756233323678 -7.260119531146075 -14.445854999981355 3 -3 0
88 22 3 -1.11466 -12.109550789150036 -8.099924980019395 -6.736101163121761 -4 2 0
315 79 2 0.55733 -6.924496742294991 -7.493060495331076 -4.539220734965985 0 -1 0
651 163 2 0.55733 -9.768769749390932 -5.603567165868488 -16.620885979982706 -1 2 0
2507 627 2 0.55733 -12.008532342528675 -5.230941538416752 -15.376011621289267 -2 -2 0
615 154 2 0.55733 -9.431464289066588 -7.849006968859138 -11.742959999971394 1 0 0
1764 441 3 -1.11466 -10.601116942701582 -7.808931168833007 -14.562887547796514 3 -3 0
65 17 1 1.71637987 -7.136483005464696 -4.438073006042898 -8.443359013889063 -5 -2 0
2549 638 1 1.71637987 -6.697704306002153 -6.7571869107511375 -14.442254329330542 0 0 0
2679 670 2 0.55733 -9.161537666602724 -5.847480092868043 -11.414609053814903 -3 -1 0
3767 638 9 -1.71637987 -6.705716460556335 -6.840758399817018 -14.454545876102864 0 0 0
3710 41 9 -1.71637987 -10.055059255627151 -4.388440875655025 -1.2156980631645806 -1 -2 0
1130 283 2 0.55733 -8.15257889231004 -6.210853119967532 -17.62269150249192 2 1 0
515 129 2 0.55733 -8.489182457114675 -4.728141906690066 10.218330827229204 -1 1 0
649 163 1 1.71637987 -10.046881336331992 -4.805492553271579 -16.175016989524032 -1 2 0
1013 254 1 1.71637987 -6.275510930465582 -5.708482566380519 -17.310905689165022 -2 0 0
1132 283 3 -1.11466 -8.678601162972363 -6.824699247766917 -17.829919837085384 2 1 0
1131 283 2 0.55733 -8.54763681872009 -7.642917488067282 -17.925127748012734 2 1 0
2552 638 3 -1.11466 -6.681475830707096 -6.52561382055688 -14.42096205272468 0 0 0
313 79 1 1.71637987 -7.202053824791761 -7.8663648675168485 -5.375175123479532 0 -1 0
2951 738 2 0.55733 -12.008173368821963 -7.0887331438888666 5.809478691399304 -1 1 0
616 154 3 -1.11466 -9.149332812818832 -7.405095924098873 -12.389734960201842 1 0 0
1368 342 3 -1.11466 -12.23500106593217 -5.045140635105026 -5.044572742981378 3 -2 0
215 54 2 0.55733 -6.332988909880024 -5.480167250564523 -11.261409782177603 0 0 0
3550 441 9 -1.71637987 -10.662155047846671 -8.028582758293789 -14.79989634464541 3 -3 0
2677 670 1 1.71637987 -9.247411388915031 -5.161214591224733 -10.753083747296825 -3 -1 0
3812 670 9 -1.71637987 -9.262028596706225 -5.095302165082726 -10.762536401724075 -3 -1 0
2373 594 1 1.71637987 -12.359250562287224 -5.437719706290928 -8.721018541761456 1 -2 0
2680 670 3 -1.11466 -9.269423202984218 -5.393519141819357 -10.723052588464496 -3 -1 0
3717 594 9 -1.71637987 -12.37577734300024 -5.418140937867374 -8.770618894633236 1 -2 0
314 79 2 0.55733 -6.673697326973503 -7.415850827479178 -6.03273057347343 0 -1 0
2002 501 2 0.55733 -9.75299002472894 -7.511818343644346 -4.931280378425732 -1 -1 0
1762 441 2 0.55733 -9.879984937009896 -7.911084249758446 -14.157478572137041 3 -3 0
2374 594 2 0.55733 -11.458141268161837 -5.700052179176811 -8.5319217513275 1 -2 0
1292 323 3 -1.11466 -9.387086739845772 -5.946576713400813 -7.872621790819409 -1 -1 0
2003 501 2 0.55733 -9.664611604499296 -6.048576051737548 -5.3138486221390755 -1 -1 0
2001 501 1 1.71637987 -10.159386342776216 -6.8486781909347165 -5.4858979826409735 -1 -1 0
3622 501 9 -1.71637987 -10.221599973834198 -6.8254024494217 -5.554622253639292 -1 -1 0
2004 501 3 -1.11466 -9.978132589782264 -6.820922092931108 -5.3396010328264465 -1 -1 0
1290 323 2 0.55733 -9.663450284734852 -6.1033684776285915 -7.1021553543091835 -1 -1 0
3451 323 9 -1.71637987 -9.583333982553492 -5.977867279418568 -8.097451792093441 -1 -1 0
1289 323 1 1.71637987 -9.541856233915896 -5.99045956037709 -8.043427189871878 -1 -1 0
316 79 3 -1.11466 -7.040358793117919 -7.700484102076836 -5.339090213062674 0 -1 0
2583 646 2 0.55733 -7.973125530355825 -8.204556035688167 1.968753824079052 2 0 0
3224 125 9 -1.71637987 -11.544856619190199 -8.14912742499712 10.138740155490481 1 -1 0
1291 323 2 0.55733 -8.65010369655075 -5.658516997735674 -8.137404843789891 -1 -1 0
87 22 2 0.55733 -11.367130780664489 -7.832023026501217 -6.464303428035073 -4 2 0
613 154 1 1.71637987 -9.311460427214124 -7.273691592245139 -12.496104154422994 1 0 0
3380 254 9 -1.71637987 -6.3378470859691625 -5.734299009325245 -17.314426930769816 -2 0 0
2678 670 2 0.55733 -9.443967065840033 -5.628733360139432 -9.941684384059071 -3 -1 0
299 75 2 0.55733 -11.999107088613714 -5.763706875620237 1.0097909989899518 -1 -1 0
68 17 3 -1.11466 -7.166918857536863 -4.206758355142465 -8.46773004263188 -5 -2 0
1081 271 1 1.71637987 -6.640172946836043 -5.272680061845659 2.6920057468541514 0 2 0
327 82 2 0.55733 -7.83451901674936 -8.135323959941307 16.528400467374336 -1 0 0
3636 453 9 -1.71637987 -10.326665565923992 -6.364553859194753 16.408016465247833 1 -1 0
2376 594 3 -1.11466 -12.284306753128002 -5.584415216399912 -8.55425090963352 1 -2 0
1523 381 2 0.55733 -9.463833475816852 -7.870480929030531 12.320286774781335 -4 -1 0
3170 82 9 -1.71637987 -8.164074058740734 -7.697475225829494 15.698826108181601 -1 0 0
3520 381 9 -1.71637987 -8.810492849404486 -7.328232952742995 11.80616307183783 -4 -1 0
161 41 1 1.71637987 -9.966891963654104 -4.41872107397674 -1.2570050481492456 -1 -2 0
164 41 3 -1.11466 -9.749401203031338 -4.480295040079673 -1.195477679354446 -1 -2 0
326 82 2 0.55733 -8.905073069840006 -7.16674491986941 16.066449928320672 -1 0 0
243 61 2 0.55733 -12.275147179626778 -8.009892893432363 -17.455544496191845 -2 0 0
3496 376 9 -1.71637987 -11.26653511003687 -5.71433093925821 11.689107960678408 0 -3 0
1118 280 2 0.55733 -9.22512593144756 -7.682145959339307 -1.5418404122902323 -1 2 0
3399 280 9 -1.71637987 -8.824921340416326 -6.753277893014941 -1.5253393486803717 -1 2 0
1117 280 1 1.71637987 -8.805496419659564 -6.824250659181957 -1.5996352611098845 -1 2 0
1120 280 3 -1.11466 -8.728859071011811 -7.027713053060774 -1.6896164314925586 -1 2 0
3162 75 9 -1.71637987 -11.317773507223082 -6.235746001977729 0.42109610426990884 -1 -1 0
297 75 1 1.71637987 -11.331407630727133 -6.158994234737032 0.4519459353237964 -1 -1 0
2974 744 2 0.55733 -9.187209841198072 -6.798461307140037 1.3580509645482728 1 0 0
2975 744 2 0.55733 -8.380585877209281 -6.819068897081274 0.07610387870757218 1 0 0
3896 744 9 -1.71637987 -8.25004950682675 -6.838165353960156 1.0785232053855969 1 0 0
2973 744 1 1.71637987 -8.291991536470356 -6.808980860370848 1.0274047441094643 1 0 0
2976 744 3 -1.11466 -8.49015372650838 -6.809075315091527 0.9023868798692586 1 0 0
300 75 3 -1.11466 -11.364938862419134 -5.930103477168822 0.4945021472494957 -1 -1 0
298 75 2 0.55733 -10.835066387621083 -5.420337013008593 0.10289022285925331 -1 -1 0
1082 271 2 0.55733 -7.456144780931563 -5.385958279840601 2.209839282877908 0 2 0
1084 271 3 -1.11466 -6.836801768232801 -5.374077886620347 2.767437746622472 0 2 0
2417 605 1 1.71637987 -10.980875041755153 -5.632564047572681 19.03816512429929 0 0 0
1083 271 2 0.55733 -6.802141692164403 -5.667506332447792 3.547309144696391 0 2 0
652 163 3 -1.11466 -9.84892673640261 -4.928829163990477 -16.139031796554725 -1 2 0
1119 280 2 0.55733 -8.005013290785046 -6.976646565155643 -2.099350350629494 -1 2 0
1501 376 1 1.71637987 -11.315936814242225 -5.655535748137203 11.738536012437157 0 -3 0
163 41 2 0.55733 -9.580573974858794 -5.291749782797604 -1.283863379999607 -1 -2 0
391 98 2 0.55733 -7.419059078217622 -4.736902262109105 8.790696153425733 1 0 0
3255 154 9 -1.71637987 -9.317417607063742 -7.2439186067557655 -12.525987318518256 1 0 0
3241 163 9 -1.71637987 -10.091826567990669 -4.78859285796473 -16.18465663950735 -1 2 0
2952 738 3 -1.11466 -11.914533375061414 -6.77802395761713 5.0418847716012305 -1 1 0
498 125 2 0.55733 -11.274173573615714 -7.5287018757290545 10.863663319707687 1 -1 0
2420 605 3 -1.11466 -11.093720487137523 -5.460126823259892 19.14733120024969 0 0 0
1366 342 2 0.55733 -11.707524260347833 -5.690659699923622 -5.072768492338149 3 -2 0
3410 271 9 -1.71637987 -6.538872838802113 -5.207682149787523 2.6901727420411805 0 2 0
176 44 3 -1.11466 -6.832221768247991 -6.488801963808943 5.248937399380464 -2 0 0
3779 605 9 -1.71637987 -10.939104759734223 -5.6717363201897 18.978642262622255 0 0 0
175 44 2 0.55733 -6.613818815320004 -5.792023657423968 5.650932721980933 -2 0 0
1590 398 2 0.55733 -8.6239176712174 -6.442865004507612 4.3466619360092205 0 1 0
2269 568 1 1.71637987 -9.600474619397 -8.061186866904361 8.079199660951396 1 0 0
392 98 3 -1.11466 -7.245959882637228 -5.4936125999566086 9.097135170820819 1 0 0
1812 453 3 -1.11466 -10.585239270029914 -6.225611806032084 16.51200699000464 1 -1 0
2778 695 2 0.55733 -10.745726912082725 -5.3051673354716495 9.457026266229123 -1 0 0
3228 98 9 -1.71637987 -7.482457195756129 -5.62838238706149 9.143653047910322 1 0 0
2779 695 2 0.55733 -10.476891204885629 -6.314255216150772 8.358003511656905 -1 0 0
1591 398 2 0.55733 -10.136903675746549 -6.4519780451992395 4.247047206998689 0 1 0
3632 695 9 -1.71637987 -10.958803947262394 -5.454126390169911 8.491030496178634 -1 0 0
2780 695 3 -1.11466 -10.79483716593508 -5.614895799360561 8.683959175014783 -1 0 0
1592 398 3 -1.11466 -9.359838872448588 -6.337833131174359 3.965378238519205 0 1 0
2777 695 1 1.71637987 -10.918163090848932 -5.483895574979332 8.534578211659557 -1 0 0
3536 398 9 -1.71637987 -9.354959643317176 -6.226139773672462 3.6934437522480144 0 1 0
1589 398 1 1.71637987 -9.345271308732311 -6.267471216009955 3.74415505151607 0 1 0
389 98 1 1.71637987 -7.429057136711334 -5.638617566097655 9.109209875705071 1 0 0
3773 568 9 -1.71637987 -9.65456055312569 -8.014113485730475 8.112323179903816 1 0 0
855 214 2 0.55733 -9.84104060399547 -7.722248032923908 18.69932559972193 0 4 0
3898 738 9 -1.71637987 -11.729344568141501 -6.945427441680491 4.852073816314209 -1 1 0
2949 738 1 1.71637987 -11.796704206986497 -6.918218413270831 4.894559786573699 -1 1 0
173 44 1 1.71637987 -6.946388886190661 -6.454903682426914 5.047517826911011 -2 0 0
2272 568 3 -1.11466 -9.43296192313206 -8.218033384124507 8.119862066602352 1 0 0
174 44 2 0.55733 -6.711327213156695 -7.2903248078979015 5.446245263718836 -2 0 0
3142 44 9 -1.71637987 -6.997698033166592 -6.41620112287809 4.95653622894386 -2 0 0
328 82 3 -1.11466 -8.248214770958418 -7.672583554401935 15.97144331785201 -1 0 0
1811 453 2 0.55733 -10.568259325801804 -6.03109323912345 17.32283056623397 1 -1 0
3173 79 9 -1.71637987 -7.193567251358613 -7.912268071145762 -5.387264590491121 0 -1 0
226 57 2 0.55733 -9.655212022366625 -4.476782941136538 3.0772260440735395 -1 -1 0
1522 381 2 0.55733 -9.420350495641282 -6.5417228913473355 11.592252279550241 -4 -1 0
2418 605 2 0.55733 -11.809942023544012 -5.224885456963905 18.790181791195177 0 0 0
1809 453 1 1.71637987 -10.3821032301215 -6.302594704468344 16.423976003847798 1 -1 0
325 82 1 1.71637987 -8.164155556403047 -7.685428440482973 15.751655201461372 -1 0 0
1810 453 2 0.55733 -11.210082854475036 -6.198698107788441 15.96036689104418 1 -1 0
1521 381 1 1.71637987 -8.88958567047973 -7.30596122274471 11.80585148303296 -4 -1 0
1503 376 2 0.55733 -11.012289287527562 -4.756378994634813 11.627731406908667 0 -3 0